CH4 AIMD Simulation                     
           1
    10.000000    0.000000    0.000000
     0.000000   10.000000    0.000000
     0.000000    0.000000   10.000000
   C    H 
     1     4
Direct configuration=     1
   0.50000000  0.50000000  0.50000000
   0.60000000  0.50000000  0.50000000
   0.40000000  0.50000000  0.50000000
   0.50000000  0.60000000  0.50000000
   0.50000000  0.40000000  0.50000000
Direct configuration=     2
   0.49996366  0.49958072  0.49999065
   0.60323873  0.50025014  0.49345314
   0.38777508  0.50371311  0.50157322
   0.50257565  0.60371258  0.50229894
   0.50684699  0.39736015  0.50278705
Direct configuration=     3
   0.49963702  0.49921577  0.49998185
   0.60890770  0.50067807  0.48543397
   0.37635406  0.50730495  0.50202585
   0.50534153  0.60946354  0.50588517
   0.51375647  0.39197280  0.50687298
Direct configuration=     4
   0.49906328  0.49891153  0.49997153
   0.61475726  0.50135866  0.47454932
   0.36761376  0.51048850  0.50031511
   0.50838092  0.61517716  0.51202099
   0.52049906  0.38604923  0.51345649
Direct configuration=     5
   0.49839060  0.49866427  0.49995806
   0.61886602  0.50226743  0.46071619
   0.36223311  0.51298483  0.49631891
   0.51163337  0.61922379  0.52087117
   0.52659803  0.38156742  0.52259748
Direct configuration=     6
   0.49774238  0.49848193  0.49994306
   0.61987588  0.50331736  0.44483854
   0.36066379  0.51459178  0.49047317
   0.51496142  0.62046815  0.53179884
   0.53161515  0.37985629  0.53357340
Direct configuration=     7
   0.49719809  0.49837927  0.49993239
   0.61702093  0.50439982  0.42814659
   0.36320120  0.51518776  0.48335851
   0.51819257  0.61825684  0.54389003
   0.53523898  0.38162211  0.54541699
Direct configuration=     8
   0.49680592  0.49836990  0.49993429
   0.61004221  0.50541097  0.41190690
   0.36991097  0.51471978  0.47558096
   0.52114045  0.61237101  0.55616903
   0.53727045  0.38707733  0.55713237
Direct configuration=     9
   0.49660514  0.49846000  0.49995730
   0.59909143  0.50626360  0.39731458
   0.38046055  0.51320975  0.46773834
   0.52362065  0.60300511  0.56768528
   0.53760307  0.39601844  0.56777468
Direct configuration=    10
   0.49665749  0.49864287  0.50001170
   0.58469140  0.50689125  0.38543836
   0.39375277  0.51079650  0.46032019
   0.52546891  0.59080602  0.57758552
   0.53623375  0.40780672  0.57651541
Direct configuration=    11
   0.49708210  0.49889570  0.50012193
   0.56776046  0.50724981  0.37713577
   0.40739909  0.50779052  0.45340342
   0.52657402  0.57695341  0.58523159
   0.53331331  0.42127002  0.58276477
Direct configuration=    12
   0.49803997  0.49918976  0.50033833
   0.54965540  0.50732130  0.37290667
   0.41773827  0.50461295  0.44627218
   0.52692801  0.56319394  0.59037207
   0.52922019  0.43460355  0.58638545
Direct configuration=    13
   0.49954950  0.49952365  0.50064308
   0.53209082  0.50711647  0.37275523
   0.42205664  0.50148893  0.43823992
   0.52668020  0.55171460  0.59331570
   0.52458324  0.44540148  0.58796510
Direct configuration=    14
   0.50134388  0.49993051  0.50078789
   0.51685861  0.50668193  0.37621707
   0.42082144  0.49837059  0.43063113
   0.52612923  0.54482521  0.59488482
   0.52004939  0.45095696  0.58880366
Direct configuration=    15
   0.50313483  0.50042640  0.50050247
   0.50546478  0.50612493  0.38249584
   0.41560393  0.49523149  0.42571351
   0.52554847  0.54415740  0.59583094
   0.51573042  0.44936473  0.58992457
Direct configuration=    16
   0.50479867  0.50096905  0.49982554
   0.49885853  0.50561033  0.39034065
   0.40739329  0.49213597  0.42481829
   0.52487707  0.54958102  0.59610680
   0.51123431  0.44103341  0.59082969
Direct configuration=    17
   0.50630368  0.50146939  0.49910694
   0.49711487  0.50526635  0.39771778
   0.39704325  0.48927164  0.42814398
   0.52372804  0.55949974  0.59492699
   0.50640032  0.42831340  0.58993778
Direct configuration=    18
   0.50760925  0.50184168  0.49880298
   0.49942011  0.50512556  0.40170173
   0.38582806  0.48692205  0.43526901
   0.52183218  0.57192873  0.59142433
   0.50152491  0.41390320  0.58598230
Direct configuration=    19
   0.50863130  0.50203794  0.49921694
   0.50478213  0.50516501  0.40007772
   0.37521481  0.48532673  0.44558351
   0.51923315  0.58497126  0.58514632
   0.49709939  0.40005936  0.57859782
Direct configuration=    20
   0.50926336  0.50204935  0.50026847
   0.51254900  0.50529437  0.39407227
   0.36645861  0.48462258  0.45838317
   0.51615686  0.59704023  0.57618033
   0.49357336  0.38842809  0.56813964
Direct configuration=    21
   0.50944096  0.50188999  0.50163247
   0.52200859  0.50539313  0.38708552
   0.36043402  0.48486419  0.47289024
   0.51288089  0.60697103  0.56504467
   0.49128119  0.38007098  0.55537201
Direct configuration=    22
   0.50916152  0.50158135  0.50300861
   0.53218695  0.50537636  0.38180637
   0.35764783  0.48605021  0.48829503
   0.50968057  0.61402014  0.55251654
   0.49044569  0.37555969  0.54124567
Direct configuration=    23
   0.50845958  0.50114627  0.50419777
   0.54209065  0.50521170  0.37954189
   0.35828923  0.48813226  0.50380388
   0.50681707  0.61783149  0.53947646
   0.49119507  0.37505672  0.52675832
Direct configuration=    24
   0.50738584  0.50061125  0.50508808
   0.55085359  0.50491220  0.38058693
   0.36230230  0.49101278  0.51865897
   0.50455452  0.61841431  0.52677959
   0.49357820  0.37831895  0.51286159
Direct configuration=    25
   0.50599856  0.50001685  0.50564229
   0.55775637  0.50453049  0.38457775
   0.36943110  0.49453451  0.53213553
   0.50318669  0.61614433  0.51515063
   0.49757715  0.38458823  0.50036656
Direct configuration=    26
   0.50436102  0.49943331  0.50590026
   0.56222551  0.50415709  0.39067768
   0.37921030  0.49846610  0.54356202
   0.50304933  0.61180045  0.50509877
   0.50313467  0.39238284  0.48979344
Direct configuration=    27
   0.50253788  0.49896255  0.50598056
   0.56385517  0.50391610  0.39774859
   0.39090702  0.50250059  0.55241722
   0.50450445  0.60660485  0.49684277
   0.51025085  0.39943927  0.48115889
Direct configuration=    28
   0.50059538  0.49867763  0.50604334
   0.56245622  0.50394204  0.40467555
   0.40339916  0.50628467  0.55859521
   0.50789038  0.60210943  0.49022038
   0.51910316  0.40354680  0.47392232
Direct configuration=    29
   0.49864249  0.49851306  0.50617293
   0.55818050  0.50434559  0.41065444
   0.41491939  0.50953069  0.56290232
   0.51343846  0.59965330  0.48470257
   0.52976667  0.40433004  0.46759759
Direct configuration=    30
   0.49687814  0.49830657  0.50628410
   0.55163223  0.50523274  0.41476916
   0.42297746  0.51223615  0.56736870
   0.52119557  0.59952562  0.47986149
   0.54169136  0.40334533  0.46252228
Direct configuration=    31
   0.49547753  0.49796236  0.50623781
   0.54352644  0.50671567  0.41541415
   0.42591377  0.51467280  0.57409805
   0.53090891  0.60083645  0.47595267
   0.55397032  0.40224913  0.45961277
Direct configuration=    32
   0.49444271  0.49750339  0.50604914
   0.53388686  0.50877449  0.41099675
   0.42495285  0.51683434  0.58288086
   0.54204182  0.60238814  0.47377920
   0.56586705  0.40198980  0.45968702
Direct configuration=    33
   0.49375435  0.49701630  0.50577426
   0.52166253  0.51116039  0.40175939
   0.42264402  0.51837899  0.59170527
   0.55392571  0.60323650  0.47405845
   0.57678428  0.40306131  0.46312224
Direct configuration=    34
   0.49346730  0.49659202  0.50534077
   0.50586832  0.51349896  0.39024673
   0.42083496  0.51903569  0.59880956
   0.56574051  0.60259587  0.47697574
   0.58602047  0.40580272  0.46982000
Direct configuration=    35
   0.49362233  0.49630312  0.50463623
   0.48680016  0.51539413  0.37956015
   0.42048448  0.51869689  0.60323771
   0.57652130  0.59989999  0.48222845
   0.59279629  0.41041218  0.47928798
Direct configuration=    36
   0.49420347  0.49619637  0.50361800
   0.46582182  0.51652952  0.37191893
   0.42200655  0.51736707  0.60462147
   0.58534260  0.59497333  0.48925062
   0.59645121  0.41681554  0.49075322
Direct configuration=    37
   0.49515407  0.49629547  0.50233033
   0.44460090  0.51674703  0.36840485
   0.42548654  0.51513527  0.60294799
   0.59147763  0.58805368  0.49736056
   0.59663941  0.42455908  0.50329701
Direct configuration=    38
   0.49638998  0.49661085  0.50086954
   0.42462078  0.51601969  0.36924276
   0.43072676  0.51218571  0.59849458
   0.59449464  0.57976057  0.50584486
   0.59351772  0.43274109  0.51597372
Direct configuration=    39
   0.49779762  0.49714796  0.49932637
   0.40704243  0.51439562  0.37415835
   0.43714469  0.50882733  0.59196036
   0.59434009  0.57105761  0.51399352
   0.58792554  0.43997525  0.52797870
Direct configuration=    40
   0.49924505  0.49790339  0.49771511
   0.39271965  0.51195566  0.38263345
   0.44357104  0.50550320  0.58475470
   0.59145052  0.56321255  0.52114111
   0.58132648  0.44451104  0.53891455
Direct configuration=    41
   0.50063479  0.49883870  0.49593531
   0.38225283  0.50879152  0.39405496
   0.44817944  0.50270993  0.57915743
   0.58685385  0.55767783  0.52676235
   0.57508941  0.44476907  0.54884619
Direct configuration=    42
   0.50192976  0.49985076  0.49387576
   0.37606818  0.50500856  0.40779845
   0.44920347  0.50079631  0.57741050
   0.58205283  0.55578353  0.53064169
   0.56949714  0.44020414  0.55770762
Direct configuration=    43
   0.50306287  0.50078674  0.49161831
   0.37449536  0.50075630  0.42325642
   0.44650631  0.49988269  0.57965715
   0.57837632  0.55828796  0.53294700
   0.56383387  0.43162357  0.56481191
Direct configuration=    44
   0.50393622  0.50150816  0.48941225
   0.37773992  0.49627100  0.43981980
   0.44163545  0.49999333  0.58414468
   0.57606010  0.56495792  0.53392672
   0.55728663  0.42066323  0.56927827
Direct configuration=    45
   0.50453122  0.50194569  0.48749774
   0.38559257  0.49188768  0.45676795
   0.43630679  0.50106387  0.58924967
   0.57419650  0.57453179  0.53358632
   0.54947967  0.40914695  0.57056069
Direct configuration=    46
   0.50494400  0.50209950  0.48604984
   0.39674986  0.48794388  0.47308089
   0.43165918  0.50294487  0.59410800
   0.57163283  0.58522303  0.53180574
   0.54057571  0.39867112  0.56856073
Direct configuration=    47
   0.50541104  0.50202502  0.48517806
   0.40783443  0.48449708  0.48748626
   0.42833808  0.50548488  0.59844423
   0.56766229  0.59533679  0.52855409
   0.53117318  0.39035870  0.56354175
Direct configuration=    48
   0.50628221  0.50183029  0.48488180
   0.41356394  0.48100764  0.49924503
   0.42670646  0.50861018  0.60238215
   0.56214535  0.60361095  0.52395575
   0.52212868  0.38478758  0.55600173
Direct configuration=    49
   0.50765884  0.50160101  0.48504847
   0.41133953  0.47707052  0.50864409
   0.42690532  0.51231608  0.60611401
   0.55536777  0.60928727  0.51829107
   0.51439710  0.38209635  0.54653370
Direct configuration=    50
   0.50920089  0.50130722  0.48560850
   0.40384394  0.47348775  0.51567002
   0.42892483  0.51654519  0.60958355
   0.54784434  0.61206894  0.51193043
   0.50887496  0.38219710  0.53567232
Direct configuration=    51
   0.51053757  0.50088287  0.48654875
   0.39440101  0.47133145  0.52014607
   0.43272608  0.52104938  0.61247288
   0.54011286  0.61208357  0.50514636
   0.50619336  0.38493139  0.52379764
Direct configuration=    52
   0.51144783  0.50030675  0.48786754
   0.38502854  0.47113189  0.52219302
   0.43834203  0.52540773  0.61439963
   0.53260181  0.60989415  0.49793340
   0.50652779  0.38988186  0.51119697
Direct configuration=    53
   0.51182493  0.49964730  0.48957010
   0.37685768  0.47284021  0.52203986
   0.44591957  0.52915243  0.61504880
   0.52562410  0.60649541  0.48999247
   0.50956947  0.39574823  0.49819240
Direct configuration=    54
   0.51161876  0.49908303  0.49169140
   0.37060708  0.47608971  0.51988208
   0.45567562  0.53182755  0.61416741
   0.51938623  0.60312611  0.48080739
   0.51477813  0.39997033  0.48493774
Direct configuration=    55
   0.51079893  0.49878572  0.49432003
   0.36678836  0.48042218  0.51589724
   0.46780267  0.53300554  0.61154809
   0.51393330  0.60073200  0.46978301
   0.52176971  0.40042503  0.47099376
Direct configuration=    56
   0.50937417  0.49870675  0.49746600
   0.36578525  0.48538403  0.51032355
   0.48228958  0.53240816  0.60719937
   0.50917321  0.59925120  0.45668252
   0.53015884  0.39848985  0.45623049
Direct configuration=    57
   0.50742646  0.49870214  0.50086582
   0.36791282  0.49054945  0.50355771
   0.49872242  0.53021585  0.60195550
   0.50503867  0.59755897  0.44221230
   0.53912688  0.39726439  0.44187510
Direct configuration=    58
   0.50505271  0.49867646  0.50400566
   0.37340589  0.49550443  0.49623552
   0.51653263  0.52738649  0.59825079
   0.50160251  0.59446189  0.42791133
   0.54777086  0.39854428  0.42949033
Direct configuration=    59
   0.50228671  0.49857039  0.50638724
   0.38217875  0.49982937  0.48922869
   0.53588397  0.52512669  0.59865969
   0.49905809  0.58950103  0.41532862
   0.55541356  0.40271393  0.42006584
Direct configuration=    60
   0.49925412  0.49842163  0.50796421
   0.39321289  0.50314925  0.48341604
   0.55654408  0.52340245  0.60153948
   0.49763008  0.58293368  0.40540895
   0.56157174  0.40947243  0.41397739
Direct configuration=    61
   0.49638835  0.49828839  0.50897356
   0.40360578  0.50529913  0.47910639
   0.57642319  0.52161237  0.60337153
   0.49747455  0.57536200  0.39847252
   0.56587605  0.41828463  0.41126809
Direct configuration=    62
   0.49430485  0.49815628  0.50964633
   0.40825055  0.50655471  0.47533351
   0.59345236  0.51960689  0.60247315
   0.49864480  0.56744773  0.39447901
   0.56805676  0.42853559  0.41185228
Direct configuration=    63
   0.49338129  0.49797726  0.51013052
   0.40389802  0.50740766  0.47084873
   0.60652470  0.51755377  0.59865912
   0.50110137  0.55979801  0.39325045
   0.56797329  0.43953570  0.41556398
Direct configuration=    64
   0.49338818  0.49775473  0.51035572
   0.39380318  0.50786495  0.46667195
   0.61522808  0.51570658  0.59232420
   0.50467677  0.55296662  0.39456240
   0.56570654  0.45042975  0.42205888
Direct configuration=    65
   0.49393278  0.49753713  0.51023523
   0.38260994  0.50775034  0.46443819
   0.61943149  0.51429100  0.58402563
   0.50901908  0.54757302  0.39808615
   0.56181282  0.45996717  0.43051471
Direct configuration=    66
   0.49470140  0.49741036  0.50985450
   0.37313366  0.50698599  0.46488832
   0.61909070  0.51345723  0.57438658
   0.51357065  0.54447183  0.40323120
   0.55784648  0.46618911  0.43913155
Direct configuration=    67
   0.49539111  0.49750415  0.50947453
   0.36678937  0.50553930  0.46810282
   0.61425566  0.51328318  0.56415188
   0.51771353  0.54465157  0.40909716
   0.55659887  0.46650358  0.44484961
Direct configuration=    68
   0.49579130  0.49791997  0.50929223
   0.36427399  0.50338743  0.47388640
   0.60529160  0.51384176  0.55436488
   0.52110037  0.54868554  0.41481574
   0.55988473  0.45906850  0.44532406
Direct configuration=    69
   0.49598180  0.49857597  0.50911054
   0.36590494  0.50053971  0.48195126
   0.59342010  0.51531796  0.54653298
   0.52369390  0.55625796  0.41995945
   0.56524365  0.44498836  0.44212961
Direct configuration=    70
   0.49598410  0.49925654  0.50856057
   0.37172168  0.49709734  0.49195337
   0.58175113  0.51812869  0.54261405
   0.52544050  0.56633956  0.42451104
   0.56932165  0.42736414  0.43810057
Direct configuration=    71
   0.49552731  0.49974074  0.50731823
   0.38124365  0.49327954  0.50346712
   0.57566508  0.52307494  0.54500988
   0.52613196  0.57759658  0.42863118
   0.57068076  0.40916287  0.43499254
Direct configuration=    72
   0.49466978  0.49994137  0.50527801
   0.39269936  0.48925730  0.51598855
   0.57668764  0.53030155  0.55453338
   0.52550110  0.58867950  0.43253226
   0.56913317  0.39246591  0.43355166
Direct configuration=    73
   0.49414568  0.50003297  0.50266398
   0.40228251  0.48484848  0.52940678
   0.57978093  0.53788454  0.56817326
   0.52330734  0.59839732  0.43646110
   0.56494546  0.37847369  0.43396184
Direct configuration=    74
   0.49448864  0.50022145  0.49967737
   0.40673710  0.47957571  0.54454018
   0.58151575  0.54408469  0.58255541
   0.51942910  0.60581364  0.44061536
   0.55851504  0.36786606  0.43616419
Direct configuration=    75
   0.49555211  0.50054502  0.49654168
   0.40804847  0.47378041  0.56090990
   0.58109012  0.54822999  0.59560969
   0.51398299  0.61035401  0.44504607
   0.55030205  0.36108933  0.43997227
Direct configuration=    76
   0.49697257  0.50090722  0.49356196
   0.40950893  0.46848222  0.57630525
   0.57875787  0.55026644  0.60628491
   0.50729845  0.61185818  0.44962302
   0.54079717  0.35849654  0.44511414
Direct configuration=    77
   0.49852087  0.50118555  0.49097365
   0.41250460  0.46441237  0.58901367
   0.57499970  0.55035089  0.61407874
   0.49977543  0.61059299  0.45405753
   0.53048614  0.36040408  0.45126558
Direct configuration=    78
   0.50008727  0.50125704  0.48892373
   0.41714433  0.46188893  0.59830169
   0.57025562  0.54865896  0.61871796
   0.49172066  0.60726818  0.45794879
   0.51983114  0.36708562  0.45806862
Direct configuration=    79
   0.50163300  0.50101340  0.48750562
   0.42306391  0.46097449  0.60407515
   0.56487035  0.54532523  0.62000171
   0.48317887  0.60296084  0.46088072
   0.50927289  0.37856754  0.46511237
Direct configuration=    80
   0.50316005  0.50044624  0.48678445
   0.42979973  0.46159570  0.60657910
   0.55911217  0.54045056  0.61774884
   0.47388728  0.59874586  0.46257169
   0.49924543  0.39384815  0.47183237
Direct configuration=    81
   0.50469267  0.49984296  0.48681363
   0.43691886  0.46363587  0.60623512
   0.55323606  0.53414659  0.61182178
   0.46354489  0.59506837  0.46300381
   0.48993658  0.40903537  0.47732082
Direct configuration=    82
   0.50633628  0.49993527  0.48762093
   0.44401663  0.46699959  0.60358592
   0.54762663  0.52665355  0.60230758
   0.45223844  0.59153891  0.46243556
   0.48001328  0.41558537  0.48035595
Direct configuration=    83
   0.50820015  0.50102027  0.48906993
   0.45056556  0.47150297  0.59926979
   0.54315235  0.51864689  0.59012055
   0.44053326  0.58755361  0.46132837
   0.46725679  0.41004203  0.48056238
Direct configuration=    84
   0.50994986  0.50240145  0.49071842
   0.45559798  0.47660716  0.59399329
   0.54189426  0.51150555  0.57841626
   0.42935134  0.58271465  0.46022910
   0.45364870  0.40032885  0.47884240
Direct configuration=    85
   0.51109113  0.50362713  0.49181636
   0.45780547  0.48164906  0.58870351
   0.54750137  0.50645397  0.57378962
   0.41982688  0.57685424  0.45960574
   0.44165078  0.39147725  0.47619480
Direct configuration=    86
   0.51134836  0.50462209  0.49198004
   0.45651242  0.48638857  0.58451250
   0.56179746  0.50291837  0.57881498
   0.41294166  0.57014985  0.45970675
   0.43244326  0.38502727  0.47329351
Direct configuration=    87
   0.51095475  0.50540027  0.49171863
   0.45219069  0.49089160  0.58224303
   0.58059491  0.50000506  0.58630073
   0.40923047  0.56309861  0.46046240
   0.42640640  0.38114210  0.47046135
Direct configuration=    88
   0.51017749  0.50592265  0.49145317
   0.44588245  0.49522572  0.58198103
   0.59956309  0.49762146  0.59135223
   0.40871821  0.55639870  0.46148523
   0.42359445  0.37961721  0.46783755
Direct configuration=    89
   0.50914399  0.50613176  0.49138553
   0.43882495  0.49941422  0.58319256
   0.61647996  0.49582450  0.59258350
   0.41089114  0.55084682  0.46216834
   0.42397553  0.38026586  0.46552402
Direct configuration=    90
   0.50792883  0.50596308  0.49162337
   0.43221426  0.50341781  0.58521563
   0.63033427  0.49463716  0.58998445
   0.41468786  0.54732013  0.46176995
   0.42753041  0.38300234  0.46364171
Direct configuration=    91
   0.50661433  0.50534451  0.49224321
   0.42696041  0.50715189  0.58749206
   0.64065632  0.49407343  0.58388421
   0.41866908  0.54676450  0.45945581
   0.43426950  0.38781724  0.46233471
Direct configuration=    92
   0.50526153  0.50422148  0.49330167
   0.42366952  0.51052394  0.58956040
   0.64718912  0.49415470  0.57463470
   0.42178140  0.54993425  0.45450708
   0.44416371  0.39468296  0.46175144
Direct configuration=    93
   0.50384807  0.50263429  0.49480487
   0.42270436  0.51345137  0.59101827
   0.64973295  0.49490497  0.56256888
   0.42444049  0.55676828  0.44686460
   0.45690303  0.40323495  0.46194697
Direct configuration=    94
   0.50233638  0.50082095  0.49670287
   0.42420608  0.51584853  0.59154192
   0.64807351  0.49634038  0.54805600
   0.42823474  0.56604573  0.43746507
   0.47142340  0.41190495  0.46253887
Direct configuration=    95
   0.50081466  0.49929052  0.49897680
   0.42806632  0.51759976  0.59096406
   0.64200286  0.49847638  0.53160776
   0.43444158  0.57591528  0.42776894
   0.48570430  0.41653011  0.46194895
Direct configuration=    96
   0.49939747  0.49856828  0.50162853
   0.43383083  0.51859255  0.58946004
   0.63151960  0.50138185  0.51402564
   0.44335989  0.58469295  0.41909914
   0.49852671  0.41252910  0.45785495
Direct configuration=    97
   0.49812501  0.49846667  0.50431656
   0.44050844  0.51891680  0.58795837
   0.61724988  0.50522501  0.49647411
   0.45452286  0.59126249  0.41238153
   0.51023936  0.40301259  0.45133976
Direct configuration=    98
   0.49710380  0.49856337  0.50650491
   0.44655499  0.51902860  0.58843476
   0.60101086  0.51020023  0.48020670
   0.46701535  0.59502001  0.40816174
   0.52020506  0.39300650  0.44506628
Direct configuration=    99
   0.49632143  0.49862548  0.50784233
   0.45070917  0.51952081  0.59294739
   0.58611118  0.51651021  0.46579735
   0.47963847  0.59580513  0.40660584
   0.52772447  0.38467326  0.44045515
Direct configuration=   100
   0.49559406  0.49854562  0.50837182
   0.45331394  0.52052596  0.60126629
   0.57592534  0.52437762  0.45266710
   0.49106296  0.59389218  0.40750333
   0.53261745  0.37867279  0.43800930
Direct configuration=   101
   0.49484335  0.49829074  0.50834565
   0.45574375  0.52173074  0.61088842
   0.57117567  0.53347752  0.44059078
   0.50000724  0.58994245  0.41038228
   0.53500981  0.37537926  0.43789897
Direct configuration=   102
   0.49412990  0.49786175  0.50793526
   0.45908891  0.52287674  0.61931245
   0.57100397  0.54253837  0.43050461
   0.50525808  0.58504740  0.41464183
   0.53515486  0.37521999  0.44023073
Direct configuration=   103
   0.49349755  0.49724311  0.50724242
   0.46394288  0.52384716  0.62503873
   0.57561895  0.54991721  0.42328563
   0.50519041  0.58079764  0.41961049
   0.53334874  0.37855094  0.44507640
Direct configuration=   104
   0.49296972  0.49643069  0.50634173
   0.47053083  0.52450606  0.62741371
   0.58497552  0.55526709  0.41895938
   0.49910971  0.57765639  0.42508698
   0.52982469  0.38544145  0.45236940
Direct configuration=   105
   0.49258792  0.49548189  0.50531476
   0.47873917  0.52463999  0.62626017
   0.59674439  0.55927709  0.41744684
   0.48872629  0.57499590  0.43073324
   0.52481662  0.39535405  0.46172417
Direct configuration=   106
   0.49239707  0.49457088  0.50430564
   0.48812799  0.52408157  0.62170714
   0.60903005  0.56205872  0.41870351
   0.47523513  0.57288726  0.43586403
   0.51892558  0.40618155  0.47201023
Direct configuration=   107
   0.49237404  0.49416348  0.50352503
   0.49811539  0.52286274  0.61433840
   0.62057951  0.56348344  0.42250771
   0.45916063  0.57155646  0.43999424
   0.51373992  0.41219983  0.48082057
Direct configuration=   108
   0.49244480  0.49491916  0.50305345
   0.50822451  0.52134585  0.60548412
   0.63041840  0.56341575  0.42852915
   0.44110649  0.57050198  0.44335909
   0.51099616  0.40576243  0.48595263
Direct configuration=   109
   0.49270750  0.49652108  0.50255220
   0.51834413  0.52027110  0.59742330
   0.63777545  0.56178958  0.43636070
   0.42221363  0.56868501  0.44674557
   0.50925705  0.39103961  0.48881592
Direct configuration=   110
   0.49317557  0.49833039  0.50167204
   0.52882131  0.52035042  0.59260625
   0.64210217  0.55864230  0.44549967
   0.40403425  0.56523768  0.45095084
   0.50701049  0.37582329  0.49086033
Direct configuration=   111
   0.49376733  0.50006013  0.50034133
   0.53972783  0.52163223  0.59161603
   0.64304653  0.55410107  0.45532962
   0.38810395  0.55984509  0.45640353
   0.50398230  0.36369942  0.49255108
Direct configuration=   112
   0.49446918  0.50163222  0.49873748
   0.55006582  0.52352381  0.59291026
   0.64039579  0.54835900  0.46512293
   0.37559694  0.55270011  0.46311647
   0.50037215  0.35581248  0.49401449
Direct configuration=   113
   0.49532627  0.50302001  0.49707983
   0.55840326  0.52538008  0.59485994
   0.63399755  0.54165117  0.47406897
   0.36725612  0.54428257  0.47084893
   0.49647925  0.35241290  0.49529633
Direct configuration=   114
   0.49637446  0.50418574  0.49552000
   0.56370977  0.52679106  0.59674906
   0.62375150  0.53425755  0.48132951
   0.36348459  0.53517906  0.47928397
   0.49260050  0.35349742  0.49644677
Direct configuration=   115
   0.49758133  0.50506843  0.49414494
   0.56557449  0.52757299  0.59858043
   0.61000011  0.52658696  0.48609210
   0.36445753  0.52597586  0.48812153
   0.48901855  0.35898728  0.49753111
Direct configuration=   116
   0.49874200  0.50557968  0.49302651
   0.56404612  0.52768406  0.60059132
   0.59490542  0.51938004  0.48754148
   0.37014683  0.51723233  0.49703405
   0.48601144  0.36868608  0.49859176
Direct configuration=   117
   0.49929201  0.50560931  0.49227801
   0.55940275  0.52714046  0.60278006
   0.58511328  0.51387935  0.48478599
   0.38013499  0.50954747  0.50555764
   0.48385270  0.38205933  0.49962514
Direct configuration=   118
   0.49855812  0.50514328  0.49206799
   0.55205926  0.52595706  0.60466357
   0.58949515  0.51097912  0.47680099
   0.39300985  0.50363036  0.51317471
   0.48275413  0.39765755  0.50063207
Direct configuration=   119
   0.49728811  0.50448697  0.49239223
   0.54262774  0.52416557  0.60554210
   0.60206131  0.50992100  0.46427706
   0.40517395  0.50023268  0.51982719
   0.48270953  0.41178779  0.50173057
Direct configuration=   120
   0.49668068  0.50425507  0.49295556
   0.53202124  0.52190068  0.60501065
   0.61405707  0.51001921  0.44968704
   0.41049996  0.49991695  0.52660150
   0.48329012  0.41705549  0.50331156
Direct configuration=   121
   0.49718583  0.50481829  0.49348646
   0.52148339  0.51947546  0.60329549
   0.62214130  0.51096193  0.43498643
   0.40601216  0.50282813  0.53437799
   0.48416419  0.40886201  0.50557417
Direct configuration=   122
   0.49834970  0.50561316  0.49403370
   0.51238989  0.51732214  0.60134567
   0.62557276  0.51261166  0.42139184
   0.39598516  0.50856040  0.54128742
   0.48587395  0.39408609  0.50763634
Direct configuration=   123
   0.49970397  0.50615257  0.49465573
   0.50579530  0.51576697  0.60036434
   0.62440378  0.51488362  0.40968282
   0.38483140  0.51624658  0.54528800
   0.48852517  0.37920429  0.50885483
Direct configuration=   124
   0.50102697  0.50627002  0.49532077
   0.50217200  0.51493828  0.60110702
   0.61887550  0.51769100  0.40040735
   0.37478943  0.52498811  0.54558825
   0.49182816  0.36707335  0.50909956
Direct configuration=   125
   0.50223925  0.50595481  0.49599066
   0.50150982  0.51482986  0.60347021
   0.60926332  0.52092009  0.39401792
   0.36688187  0.53405672  0.54222742
   0.49544931  0.35867015  0.50844062
Direct configuration=   126
   0.50331115  0.50525036  0.49665413
   0.50354863  0.51538346  0.60665585
   0.59588760  0.52441954  0.39093256
   0.36166884  0.54287257  0.53560883
   0.49912472  0.35426238  0.50699002
Direct configuration=   127
   0.50421677  0.50421311  0.49731319
   0.50791480  0.51653332  0.60963698
   0.57922520  0.52800736  0.39148896
   0.35955817  0.55092533  0.52628637
   0.50265425  0.35393035  0.50485898
Direct configuration=   128
   0.50491056  0.50289668  0.49797913
   0.51416874  0.51822703  0.61150931
   0.56012405  0.53152784  0.39569178
   0.36085896  0.55772293  0.51491430
   0.50586757  0.35773013  0.50215728
Direct configuration=   129
   0.50531224  0.50133681  0.49870718
   0.52183371  0.52043514  0.61164080
   0.54004551  0.53504895  0.40262053
   0.36572091  0.56278032  0.50226073
   0.50859452  0.36567915  0.49900600
Direct configuration=   130
   0.50532733  0.49953443  0.49964929
   0.53041843  0.52315399  0.60971884
   0.52095043  0.53926909  0.40969839
   0.37399673  0.56564389  0.48924081
   0.51064783  0.37752497  0.49555440
Direct configuration=   131
   0.50494439  0.49751079  0.50097879
   0.53943602  0.52639232  0.60576372
   0.50428372  0.54551058  0.41358644
   0.38504094  0.56596172  0.47694011
   0.51185222  0.39203326  0.49195351
Direct configuration=   132
   0.50426361  0.49558648  0.50262064
   0.54841356  0.53013685  0.60009012
   0.49049991  0.55395404  0.41383734
   0.39765006  0.56357600  0.46653601
   0.51222623  0.40534393  0.48806008
Direct configuration=   133
   0.50333530  0.49453314  0.50442741
   0.55694285  0.53434142  0.59311951
   0.48042949  0.56318179  0.41209976
   0.41013692  0.55864261  0.45916100
   0.51243047  0.40949669  0.48244213
Direct configuration=   134
   0.50219705  0.49461529  0.50639815
   0.56484625  0.53897655  0.58520328
   0.47564525  0.57224000  0.40862657
   0.41985228  0.55169641  0.45596816
   0.51326743  0.40176277  0.47335383
Direct configuration=   135
   0.50100767  0.49509121  0.50837031
   0.57224082  0.54395678  0.57660099
   0.47705755  0.58149999  0.40283153
   0.42409635  0.54312922  0.45743378
   0.51450216  0.39037351  0.46259790
Direct configuration=   136
   0.49996832  0.49546122  0.51021174
   0.57918975  0.54894046  0.56748163
   0.48274035  0.59047616  0.39618862
   0.42248331  0.53440884  0.46129407
   0.51596706  0.38068987  0.45238249
Direct configuration=   137
   0.49926122  0.49558706  0.51186006
   0.58540263  0.55346405  0.55799269
   0.49097202  0.59818295  0.39007598