CH4 AIMD Simulation                     
           1
    10.000000    0.000000    0.000000
     0.000000   10.000000    0.000000
     0.000000    0.000000   10.000000
   C    H 
     2     4
Direct configuration=     1
   0.50000000  0.50000000  0.51000000
   0.63000000  0.50000000  0.51000000
   0.44000000  0.58000000  0.51000000
   0.44000000  0.42000000  0.51000000
   0.69000000  0.58000000  0.51000000
   0.69000000  0.42000000  0.51000000
Direct configuration=     2
   0.49997420  0.49992696  0.51075777
   0.62982544  0.50005255  0.50995732
   0.43662487  0.58094540  0.51177137
   0.43946887  0.41385191  0.51149178
   0.69021335  0.58190170  0.50978403
   0.68905989  0.41501933  0.51141045
Direct configuration=     3
   0.49987025  0.49971897  0.51152110
   0.62974637  0.49998001  0.50999098
   0.43217803  0.58401626  0.51325517
   0.43831231  0.40591627  0.51317525
   0.69192389  0.58682281  0.50950352
   0.68908603  0.40800848  0.51276652
Direct configuration=     4
   0.49950537  0.49927449  0.51240508
   0.62987793  0.49984456  0.51002150
   0.42825008  0.58790457  0.51466480
   0.43781820  0.39865076  0.51482096
   0.69393856  0.59261948  0.50942177
   0.68873823  0.40101446  0.51415930
Direct configuration=     5
   0.49883694  0.49876853  0.51322561
   0.63027800  0.49964582  0.51007325
   0.42531793  0.59127068  0.51608806
   0.43852146  0.39324450  0.51640447
   0.69556005  0.59776155  0.50912680
   0.68767215  0.39527180  0.51552422
Direct configuration=     6
   0.49787174  0.49829426  0.51411357
   0.63082404  0.49938976  0.51023654
   0.42437657  0.59291533  0.51723662
   0.44015539  0.39029412  0.51789912
   0.69587232  0.60141660  0.50899440
   0.68608901  0.39155852  0.51675052
Direct configuration=     7
   0.49674877  0.49779541  0.51501518
   0.63146408  0.49910483  0.51035058
   0.42520519  0.59256381  0.51839669
   0.44264573  0.38984833  0.51928629
   0.69505690  0.60251434  0.50901869
   0.68381319  0.39042335  0.51810855
Direct configuration=     8
   0.49544135  0.49725858  0.51597534
   0.63220211  0.49869391  0.51042911
   0.42744063  0.59011463  0.51952959
   0.44640672  0.39196114  0.52094383
   0.69330188  0.60128154  0.50888198
   0.68062529  0.39164388  0.51930412
Direct configuration=     9
   0.49411750  0.49670040  0.51697985
   0.63289065  0.49830310  0.51059508
   0.43051151  0.58664512  0.52030350
   0.45059704  0.39563779  0.52259551
   0.69053418  0.59803989  0.50877901
   0.67738765  0.39484586  0.52050119
Direct configuration=    10
   0.49307603  0.49612637  0.51797795
   0.63334186  0.49809200  0.51072910
   0.43394029  0.58285437  0.52095209
   0.45434374  0.39998853  0.52448827
   0.68705229  0.59349953  0.50853944
   0.67429760  0.39933735  0.52149874
Direct configuration=    11
   0.49248388  0.49555810  0.51898385
   0.63345779  0.49797795  0.51090538
   0.43668564  0.58027685  0.52129440
   0.45660050  0.40251047  0.52644579
   0.68391018  0.58870915  0.50818334
   0.67246607  0.40371461  0.52226294
Direct configuration=    12
   0.49246609  0.49501708  0.51995698
   0.63308651  0.49792539  0.51106067
   0.43811718  0.58006705  0.52196404
   0.45713501  0.40176333  0.52831746
   0.68240868  0.58553681  0.50798954
   0.67257126  0.40614629  0.52286613
Direct configuration=    13
   0.49304394  0.49443352  0.52079245
   0.63213852  0.49796332  0.51126695
   0.43753132  0.58248655  0.52197189
   0.45630378  0.39787820  0.53031267
   0.68303310  0.58462999  0.50723803
   0.67458044  0.40571865  0.52378856
Direct configuration=    14
   0.49407110  0.49384142  0.52168455
   0.63064219  0.49793918  0.51155074
   0.43573382  0.58639401  0.52173571
   0.45409528  0.39235293  0.53245447
   0.68524499  0.58663284  0.50643263
   0.67858107  0.40315114  0.52490733
Direct configuration=    15
   0.49520531  0.49325850  0.52251964
   0.62903868  0.49779722  0.51190167
   0.43392539  0.58976967  0.52169252
   0.45142231  0.38727803  0.53451495
   0.68830048  0.59023343  0.50528021
   0.68352801  0.39982206  0.52555145
Direct configuration=    16
   0.49635210  0.49260384  0.52342558
   0.62750617  0.49752223  0.51221664
   0.43276886  0.59171482  0.52142035
   0.44906213  0.38381760  0.53724586
   0.69146014  0.59368235  0.50396948
   0.68837443  0.39786537  0.52652834
Direct configuration=    17
   0.49723037  0.49197937  0.52425681
   0.62627043  0.49729774  0.51253015
   0.43239707  0.59181896  0.52156307
   0.44738013  0.38277193  0.53987113
   0.69353097  0.59567376  0.50239786
   0.69230569  0.39727767  0.52731122
Direct configuration=    18
   0.49765443  0.49134721  0.52518820
   0.62545168  0.49698002  0.51286421
   0.43292529  0.59009890  0.52175051
   0.44640415  0.38418850  0.54198545
   0.69364019  0.59550162  0.50086605
   0.69493795  0.39890685  0.52745969
Direct configuration=    19
   0.49778522  0.49065873  0.52615122
   0.62506092  0.49657129  0.51319388
   0.43448131  0.58665696  0.52179679
   0.44594153  0.38789286  0.54380374
   0.69204034  0.59343864  0.49949130
   0.69590153  0.40249694  0.52723529
Direct configuration=    20
   0.49757495  0.48993739  0.52709922
   0.62521613  0.49611519  0.51351428
   0.43636794  0.58220734  0.52194848
   0.44609059  0.39324976  0.54512714
   0.68878617  0.58965876  0.49826351
   0.69531365  0.40749226  0.52674292
Direct configuration=    21
   0.49697979  0.48931131  0.52806558
   0.62587489  0.49568610  0.51374852
   0.43818442  0.57753676  0.52176458
   0.44612553  0.39891161  0.54657094
   0.68452221  0.58506293  0.49653558
   0.69347127  0.41290183  0.52621884
Direct configuration=    22
   0.49628983  0.48867213  0.52909253
   0.62674499  0.49539762  0.51391940
   0.43936956  0.57413468  0.52148752
   0.44531240  0.40375195  0.54819562
   0.67999944  0.58121778  0.49455160
   0.69159696  0.41743887  0.52571749
Direct configuration=    23
   0.49586763  0.48815589  0.53012646
   0.62753781  0.49511811  0.51412851
   0.43936544  0.57279207  0.52122299
   0.44288706  0.40592759  0.55018264
   0.67632500  0.57959050  0.49187118
   0.69129503  0.41919825  0.52537546
Direct configuration=    24
   0.49570213  0.48783097  0.53119512
   0.62800425  0.49477915  0.51431196
   0.43792478  0.57389932  0.52012453
   0.43885248  0.40489903  0.55304424
   0.67398444  0.58151229  0.48844812
   0.69297544  0.41768286  0.52526554
Direct configuration=    25
   0.49565104  0.48756159  0.53228112
   0.62827813  0.49437704  0.51447010
   0.43553651  0.57618748  0.51844595
   0.43424291  0.40182547  0.55659284
   0.67256369  0.58605309  0.48404120
   0.69652885  0.41304519  0.52548166
Direct configuration=    26
   0.49553767  0.48738539  0.53338401
   0.62844163  0.49391594  0.51459343
   0.43298126  0.57870760  0.51656869
   0.43011998  0.39828086  0.56041992
   0.67173284  0.59164168  0.47965473
   0.70001470  0.40769737  0.52564895
Direct configuration=    27
   0.49532994  0.48727590  0.53454272
   0.62865387  0.49345620  0.51466882
   0.43031224  0.58107077  0.51471108
   0.42750204  0.39544099  0.56431281
   0.67059343  0.59642439  0.47537675
   0.70290515  0.40331488  0.52601152
Direct configuration=    28
   0.49496882  0.48708940  0.53566241
   0.62885628  0.49291592  0.51460323
   0.42882069  0.58171541  0.51320470
   0.42636652  0.39456688  0.56807027
   0.66893345  0.59917855  0.47201233
   0.70443015  0.40037522  0.52638352
Direct configuration=    29
   0.49449218  0.48698289  0.53670531
   0.62912299  0.49253507  0.51458246
   0.42858103  0.58101006  0.51216843
   0.42668786  0.39537760  0.57173025
   0.66692326  0.59933180  0.46990479
   0.70448582  0.39958535  0.52623683
Direct configuration=    30
   0.49394324  0.48688357  0.53772741
   0.62942843  0.49233296  0.51453111
   0.42953587  0.57880154  0.51181966
   0.42839439  0.39778272  0.57485788
   0.66439104  0.59650756  0.46897223
   0.70295729  0.40112680  0.52572800
Direct configuration=    31
   0.49333234  0.48676704  0.53870153
   0.62960422  0.49208581  0.51441847
   0.43118091  0.57536285  0.51236939
   0.43146018  0.40116810  0.57745627
   0.66188762  0.59163100  0.46901709
   0.69998480  0.40439094  0.52525936
Direct configuration=    32
   0.49277998  0.48674777  0.53966112
   0.62960431  0.49190465  0.51428583
   0.43341243  0.57157298  0.51322769
   0.43527363  0.40482998  0.57991522
   0.65959513  0.58556454  0.46968949
   0.69625423  0.40870766  0.52486048
Direct configuration=    33
   0.49234524  0.48672043  0.54062251
   0.62937985  0.49170846  0.51429653
   0.43571857  0.56849994  0.51393307
   0.43941581  0.40765831  0.58249245
   0.65825216  0.57982130  0.47053357
   0.69326171  0.41264560  0.52519235
Direct configuration=    34
   0.49251456  0.48668386  0.54151553
   0.62871331  0.49152544  0.51442046
   0.43657168  0.56779902  0.51417485
   0.44299917  0.40931261  0.58601544
   0.65770371  0.57628812  0.47064103
   0.69188290  0.41483816  0.52589310
Direct configuration=    35
   0.49306042  0.48654331  0.54236916
   0.62751102  0.49139155  0.51463079
   0.43613235  0.56904383  0.51359185
   0.44518187  0.40856556  0.59072739
   0.65881310  0.57608014  0.46880837
   0.69276877  0.41433708  0.52741634
Direct configuration=    36
   0.49400169  0.48649030  0.54308010
   0.62595047  0.49119484  0.51483381
   0.43497872  0.57141151  0.51272152
   0.44672030  0.40622219  0.59592894
   0.66118553  0.57847520  0.46546608
   0.69579578  0.41150009  0.52951709
Direct configuration=    37
   0.49502136  0.48642689  0.54390108
   0.62417051  0.49092463  0.51506586
   0.43332184  0.57436598  0.51192104
   0.44801189  0.40353217  0.60129533
   0.66423075  0.58123760  0.46164713
   0.69958334  0.40817483  0.53175493
Direct configuration=    38
   0.49595048  0.48650588  0.54477544
   0.62249763  0.49062608  0.51524610
   0.43193506  0.57635358  0.51152658
   0.44965735  0.40068459  0.60616379
   0.66669351  0.58373870  0.45827096
   0.70267694  0.40546884  0.53366494
Direct configuration=    39
   0.49665547  0.48666009  0.54565617
   0.62124888  0.49028251  0.51522606
   0.43104874  0.57688837  0.51217124
   0.45204273  0.39902641  0.61015171
   0.66871023  0.58476508  0.45614828
   0.70370462  0.40416806  0.53582709
Direct configuration=    40
   0.49702708  0.48681086  0.54671132
   0.62051071  0.49001272  0.51511455
   0.43086006  0.57546082  0.51370407
   0.45508468  0.39875612  0.61288608
   0.66962611  0.58340577  0.45519815
   0.70304688  0.40519428  0.53753814
Direct configuration=    41
   0.49712962  0.48683259  0.54795327
   0.62041997  0.48980714  0.51487316
   0.43121558  0.57264948  0.51601117
   0.45845453  0.39981731  0.61404662
   0.66948832  0.58005935  0.45547099
   0.70042211  0.40779047  0.53926320
Direct configuration=    42
   0.49677753  0.48675909  0.54938550
   0.62086662  0.48978739  0.51441867
   0.43179928  0.56893028  0.51858166
   0.46151840  0.40228458  0.61419224
   0.66827364  0.57549575  0.45635295
   0.69659056  0.41169512  0.54030539
Direct configuration=    43
   0.49632731  0.48665709  0.55102162
   0.62161550  0.48975188  0.51386868
   0.43207603  0.56503731  0.52129719
   0.46441602  0.40532134  0.61378896
   0.66640418  0.57024854  0.45723616
   0.69230023  0.41575871  0.54116149
Direct configuration=    44
   0.49603298  0.48643155  0.55264738
   0.62244081  0.48961625  0.51328631
   0.43103546  0.56208995  0.52387720
   0.46706084  0.40825220  0.61374083
   0.66451933  0.56548638  0.45781165
   0.68859595  0.41889190  0.54254261
Direct configuration=    45
   0.49591989  0.48626009  0.55415208
   0.62319986  0.48950320  0.51268369
   0.42867693  0.56028338  0.52616435
   0.46857182  0.40941637  0.61510176
   0.66298352  0.56269694  0.45696462
   0.68678556  0.41960804  0.54495351
Direct configuration=    46
   0.49602280  0.48623660  0.55548847
   0.62362955  0.48951138  0.51217069
   0.42512908  0.55966969  0.52795465
   0.46874654  0.40834510  0.61820956
   0.66249171  0.56263345  0.45394330
   0.68743063  0.41769213  0.54824801
Direct configuration=    47
   0.49627106  0.48621220  0.55671962
   0.62379130  0.48941614  0.51177340
   0.42080473  0.56045345  0.52932060
   0.46830215  0.40592476  0.62237790
   0.66342719  0.56503432  0.44933010
   0.69011716  0.41411943  0.55209911
Direct configuration=    48
   0.49664766  0.48604055  0.55788790
   0.62387148  0.48925499  0.51146544
   0.41655973  0.56087297  0.53108093
   0.46750709  0.40341134  0.62670306
   0.66498844  0.56851988  0.44452188
   0.69326123  0.41039080  0.55543220
Direct configuration=    49
   0.49701337  0.48586046  0.55901501
   0.62394458  0.48900233  0.51134981
   0.41265540  0.56087157  0.53298447
   0.46634353  0.40137858  0.63046012
   0.66594919  0.57155182  0.44020037
   0.69592919  0.40780333  0.55782383
Direct configuration=    50
   0.49741235  0.48568706  0.56018364
   0.62397448  0.48874067  0.51138365
   0.41002286  0.55956308  0.53533371
   0.46498049  0.40036731  0.63343426
   0.66615127  0.57316068  0.43741587
   0.69761209  0.40715825  0.55892418
Direct configuration=    51
   0.49764128  0.48549548  0.56137621
   0.62412975  0.48845959  0.51134644
   0.40874895  0.55727395  0.53813046
   0.46421146  0.40053232  0.63501537
   0.66504180  0.57285904  0.43581961
   0.69814788  0.40863898  0.55836091
Direct configuration=    52
   0.49782283  0.48535306  0.56255197
   0.62428865  0.48824206  0.51138213
   0.40954137  0.55413032  0.54102524
   0.46398803  0.40218461  0.63531717
   0.66320161  0.57065009  0.43586926
   0.69746801  0.41186133  0.55661911
Direct configuration=    53
   0.49801080  0.48508789  0.56362875
   0.62441187  0.48803374  0.51139706
   0.41146560  0.55063967  0.54381660
   0.46449622  0.40490226  0.63467553
   0.66083563  0.56660730  0.43752116
   0.69636285  0.41589247  0.55399704
Direct configuration=    54
   0.49822797  0.48471356  0.56472704
   0.62448267  0.48793290  0.51143655
   0.41407361  0.54728452  0.54631449
   0.46549613  0.40844179  0.63400539
   0.65791731  0.56165195  0.43988744
   0.69553124  0.42033772  0.55085918
Direct configuration=    55
   0.49867531  0.48432937  0.56568167
   0.62436526  0.48788939  0.51154870
   0.41626257  0.54467343  0.54818470
   0.46730214  0.41126088  0.63441457
   0.65561074  0.55718963  0.44197651
   0.69528440  0.42385030  0.54819634
Direct configuration=    56
   0.49937534  0.48393948  0.56658114
   0.62407728  0.48782482  0.51175607
   0.41718196  0.54398398  0.54919266
   0.46932681  0.41273930  0.63620073
   0.65352817  0.55397930  0.44243442
   0.69717201  0.42547099  0.54629815
Direct configuration=    57
   0.50040485  0.48346710  0.56741485
   0.62341227  0.48773289  0.51215657
   0.41676321  0.54509964  0.54950737
   0.47141944  0.41246552  0.63968513
   0.65182893  0.55374945  0.44042030
   0.70077685  0.42520045  0.54554039
Direct configuration=    58
   0.50153339  0.48299282  0.56812052
   0.62243761  0.48758135  0.51273047
   0.41588532  0.54728393  0.54926246
   0.47332734  0.41112185  0.64424503
   0.65051037  0.55620044  0.43626574
   0.70549197  0.42373777  0.54519130
Direct configuration=    59
   0.50266627  0.48248150  0.56887605
   0.62143943  0.48737810  0.51325745
   0.41543165  0.54978410  0.54832589
   0.47559175  0.40960382  0.64897478
   0.64911238  0.55973841  0.43143377
   0.70998848  0.42200704  0.54510395
Direct configuration=    60
   0.50363500  0.48190041  0.56970230
   0.62064550  0.48723127  0.51371706
   0.41581574  0.55173393  0.54720491
   0.47826178  0.40843636  0.65314384
   0.64717904  0.56292365  0.42744498
   0.71307503  0.42052349  0.54451154
Direct configuration=    61
   0.50421331  0.48120039  0.57068543
   0.62002759  0.48712727  0.51394358
   0.41774429  0.55293094  0.54584363
   0.48132170  0.40775011  0.65660292
   0.64459901  0.56482626  0.42475604
   0.71434902  0.41984379  0.54329693
Direct configuration=    62
   0.50460009  0.48048863  0.57190909
   0.61986743  0.48703297  0.51397243
   0.42018961  0.55310454  0.54425684
   0.48479245  0.40834549  0.65892334
   0.64120295  0.56525254  0.42418406
   0.71356996  0.42053812  0.54173027
Direct configuration=    63
   0.50477420  0.47986127  0.57327790
   0.62001087  0.48698176  0.51387288
   0.42305936  0.55249086  0.54273441
   0.48832348  0.40971964  0.65988825
   0.63753972  0.56414070  0.42496320
   0.71085694  0.42225633  0.53986722
Direct configuration=    64
   0.50477920  0.47935336  0.57474881
   0.62044617  0.48695617  0.51356722
   0.42655969  0.55076285  0.54167459
   0.49162230  0.41157718  0.66019070
   0.63348158  0.56166000  0.42735236
   0.70689728  0.42483005  0.53798485
Direct configuration=    65
   0.50466969  0.47881138  0.57625900
   0.62098263  0.48693281  0.51312900
   0.43031442  0.54849080  0.54080982
   0.49490130  0.41391066  0.66023604
   0.62976450  0.55784779  0.43045760
   0.70311237  0.42747230  0.53593107
Direct configuration=    66
   0.50464566  0.47838155  0.57775705
   0.62137309  0.48691304  0.51266236
   0.43315533  0.54628389  0.54012510
   0.49779177  0.41573593  0.66082778
   0.62607861  0.55450219  0.43348012
   0.70093932  0.42890483  0.53424903
Direct configuration=    67
   0.50472311  0.47804229  0.57918985
   0.62154489  0.48704578  0.51228806
   0.43484977  0.54459594  0.53967044
   0.49988013  0.41623359  0.66270673
   0.62252645  0.55183925  0.43547997
   0.70103921  0.42850364  0.53278590
Direct configuration=    68
   0.50501285  0.47774736  0.58057735
   0.62141527  0.48710617  0.51212646
   0.43455611  0.54358417  0.53953279
   0.50097320  0.41582654  0.66598835
   0.61954800  0.55130190  0.43464732
   0.70377320  0.42601385  0.53177852
Direct configuration=    69
   0.50546838  0.47757990  0.58178295
   0.62109473  0.48711068  0.51215701
   0.43217702  0.54356695  0.53959060
   0.50120159  0.41463541  0.67054055
   0.61697086  0.55282924  0.43103920
   0.70786890  0.42314412  0.53106236
Direct configuration=    70
   0.50624883  0.47743748  0.58297822
   0.62065640  0.48708843  0.51234764
   0.42854242  0.54327490  0.54027527
   0.50058001  0.41340216  0.67509669
   0.61476279  0.55535513  0.42573956
   0.71226796  0.42017037  0.53023814
Direct configuration=    71
   0.50712769  0.47730078  0.58415967
   0.62016033  0.48706952  0.51253014
   0.42472962  0.54260732  0.54201880
   0.49931662  0.41241351  0.67868240
   0.61338656  0.55763799  0.42009698
   0.71540554  0.41831951  0.52951260
Direct configuration=    72
   0.50805809  0.47704825  0.58545261
   0.61979901  0.48702977  0.51264450
   0.42143532  0.54105804  0.54514164
   0.49795430  0.41240541  0.68131270
   0.61285281  0.55907040  0.41565955
   0.71670503  0.41836121  0.52862919
Direct configuration=    73
   0.50884194  0.47673954  0.58678895
   0.61957305  0.48699487  0.51258175
   0.41858496  0.53851486  0.54949672
   0.49682467  0.41351652  0.68227033
   0.61265804  0.55929852  0.41316184
   0.71608417  0.42023704  0.52755155
Direct configuration=    74
   0.50947861  0.47643840  0.58802737
   0.61955137  0.48698602  0.51232789
   0.41648795  0.53512020  0.55490084
   0.49579982  0.41560111  0.68178637
   0.61283346  0.55771297  0.41273249
   0.71356702  0.42392352  0.52617580
Direct configuration=    75
   0.50993538  0.47628115  0.58925163
   0.61953270  0.48692353  0.51183171
   0.41563767  0.53092279  0.56069490
   0.49488175  0.41811980  0.68025556
   0.61329313  0.55425418  0.41462479
   0.71026896  0.42848473  0.52439844
Direct configuration=    76
   0.51033668  0.47630239  0.59034362
   0.61946989  0.48689531  0.51120291
   0.41546864  0.52691241  0.56680206
   0.49478449  0.42047527  0.67850518
   0.61399462  0.54960635  0.41833083
   0.70742693  0.43292928  0.52267329
Direct configuration=    77
   0.51072837  0.47639312  0.59129494
   0.61916977  0.48682835  0.51047115
   0.41577722  0.52297931  0.57252618
   0.49536759  0.42160175  0.67810235
   0.61481275  0.54459700  0.42270706
   0.70666296  0.43640222  0.52195759
Direct configuration=    78
   0.51112436  0.47654809  0.59204995
   0.61859458  0.48679694  0.50979141
   0.41550527  0.51983812  0.57746006
   0.49684070  0.42115635  0.67950860
   0.61540269  0.54056427  0.42543138
   0.70794751  0.43821114  0.52184249
Direct configuration=    79
   0.51166184  0.47681149  0.59264613
   0.61773907  0.48665057  0.50946117
   0.41485454  0.51817372  0.58155096
   0.49943629  0.41941428  0.68269291
   0.61560090  0.53890193  0.42472951
   0.71152303  0.43879123  0.52277869
Direct configuration=    80
   0.51228153  0.47710843  0.59337589
   0.61681671  0.48633425  0.50944841
   0.41333996  0.51811140  0.58486889
   0.50302503  0.41679718  0.68612898
   0.61540860  0.53937832  0.42064851
   0.71581634  0.43821273  0.52444754
Direct configuration=    81
   0.51287792  0.47726214  0.59404255
   0.61586156  0.48598590  0.50952825
   0.41118785  0.51887392  0.58724361
   0.50766556  0.41457133  0.68956186
   0.61496211  0.54112814  0.41474948
   0.71929413  0.43720465  0.52616853
Direct configuration=    82
   0.51347302  0.47735959  0.59485189
   0.61494660  0.48546355  0.50965394
   0.40922850  0.51981990  0.58869758
   0.51324513  0.41286757  0.69179409
   0.61450238  0.54323381  0.40918556
   0.72151803  0.43667273  0.52799855
Direct configuration=    83
   0.51398539  0.47733289  0.59576942
   0.61436419  0.48498214  0.50965048
   0.40835366  0.52039998  0.58961345
   0.51945888  0.41208068  0.69264762
   0.61366760  0.54449547  0.40529391
   0.72170966  0.43696186  0.52984034
Direct configuration=    84
   0.51430994  0.47708724  0.59690058
   0.61402745  0.48466439  0.50951746
   0.40918019  0.52087549  0.59034039
   0.52578311  0.41233175  0.69192406
   0.61263480  0.54459329  0.40337348
   0.71969842  0.43757746  0.53136582
Direct configuration=    85
   0.51452835  0.47672517  0.59814534
   0.61388846  0.48435674  0.50930221
   0.41116627  0.52111431  0.59046868
   0.53218346  0.41360794  0.68969027
   0.61167267  0.54358400  0.40393374
   0.71605032  0.43890403  0.53258617
Direct configuration=    86
   0.51468587  0.47631788  0.59943261
   0.61391652  0.48414694  0.50893681
   0.41408808  0.52136767  0.59030032
   0.53853545  0.41546435  0.68679608
   0.61067128  0.54132391  0.40656544
   0.71093416  0.44051997  0.53350289
Direct configuration=    87
   0.51483272  0.47594826  0.60067732
   0.61384555  0.48402550  0.50851851
   0.41728193  0.52096238  0.59046544
   0.54431218  0.41765299  0.68443052
   0.60994828  0.53831965  0.41077487
   0.70612906  0.44175664  0.53443792
Direct configuration=    88
   0.51504156  0.47571382  0.60171582
   0.61350186  0.48403806  0.50793837
   0.42005887  0.52040875  0.59029629
   0.54961577  0.41941886  0.68332503
   0.60926373  0.53495838  0.41552491
   0.70327867  0.44203995  0.53548579
Direct configuration=    89
   0.51554982  0.47546771  0.60253415
   0.61303392  0.48401757  0.50755145
   0.42174953  0.51977384  0.59029928
   0.55445719  0.42016791  0.68418230
   0.60825196  0.53247053  0.41921794
   0.70302529  0.44138512  0.53671784
Direct configuration=    90
   0.51634540  0.47527959  0.60312183
   0.61239839  0.48391595  0.50752084
   0.42191261  0.51953450  0.59067382
   0.55842843  0.42076451  0.68610339
   0.60688880  0.53204988  0.41966778
   0.70468760  0.43979620  0.53805392
Direct configuration=    91
   0.51740147  0.47505493  0.60362207
   0.61173924  0.48370141  0.50777816
   0.42030956  0.51976132  0.59100703
   0.56167966  0.42113683  0.68924566
   0.60498418  0.53366576  0.41741166
   0.70721218  0.43790656  0.53914527
Direct configuration=    92
   0.51869193  0.47474876  0.60400959
   0.61114724  0.48335207  0.50829227
   0.41794026  0.51989782  0.59173013
   0.56386333  0.42153909  0.69264843
   0.60242772  0.53635461  0.41329637
   0.70982430  0.43651525  0.53992190
Direct configuration=    93
   0.52002693  0.47444277  0.60438287
   0.61065905  0.48297791  0.50882457
   0.41573884  0.51907788  0.59310724
   0.56456280  0.42241949  0.69594594
   0.59995011  0.53883588  0.40936288
   0.71143890  0.43545907  0.54006650
Direct configuration=    94
   0.52126096  0.47415585  0.60486475
   0.61035468  0.48256065  0.50937312
   0.41465563  0.51753066  0.59522526
   0.56384738  0.42408111  0.69883497
   0.59764355  0.54045977  0.40682453
   0.71187232  0.43527322  0.53921915
Direct configuration=    95
   0.52236695  0.47388329  0.60549085
   0.61026331  0.48229286  0.50977881
   0.41511540  0.51558707  0.59795797
   0.56185913  0.42612669  0.70121868
   0.59587749  0.54089654  0.40594548
   0.71124141  0.43574419  0.53723334
Direct configuration=    96
   0.52337784  0.47364384  0.60625994
   0.61032644  0.48211861  0.50992281
   0.41676974  0.51323352  0.60083043
   0.55857787  0.42864742  0.70283760
   0.59433247  0.53968754  0.40718089
   0.70972691  0.43632019  0.53450628
Direct configuration=    97
   0.52424699  0.47343203  0.60720775
   0.61057093  0.48198161  0.50981703
   0.41963468  0.51019330  0.60367297
   0.55473640  0.43136996  0.70372957
   0.59328015  0.53709067  0.41051595
   0.70736422  0.43734614  0.53108046
Direct configuration=    98
   0.52505395  0.47328300  0.60831616
   0.61078646  0.48191138  0.50951395
   0.42295542  0.50713304  0.60608745
   0.55123967  0.43354142  0.70455040
   0.59254293  0.53365105  0.41546966
   0.70558204  0.43811077  0.52704533
Direct configuration=    99
   0.52585097  0.47320144  0.60951426
   0.61097129  0.48191405  0.50918725
   0.42581828  0.50408034  0.60806479
   0.54786499  0.43500967  0.70590670
   0.59159968  0.53008899  0.41965783
   0.70489809  0.43860312  0.52279652
Direct configuration=   100
   0.52658781  0.47316369  0.61077893
   0.61119326  0.48193592  0.50903579
   0.42717879  0.50190773  0.60966129
   0.54540704  0.43562249  0.70819301
   0.59053496  0.52781453  0.42173565
   0.70630378  0.43881097  0.51833804
Direct configuration=   101
   0.52744421  0.47321016  0.61217047
   0.61136815  0.48198086  0.50897047
   0.42602574  0.50067936  0.61056640
   0.54402067  0.43518954  0.71109602
   0.58886408  0.52696751  0.42068125
   0.70909817  0.43845164  0.51413242
Direct configuration=   102
   0.52838544  0.47316328  0.61361778
   0.61166533  0.48190705  0.50921491
   0.42332723  0.50031416  0.61080322
   0.54338261  0.43445262  0.71468625
   0.58642658  0.52742972  0.41680804
   0.71276747  0.43850362  0.51039185
Direct configuration=   103
   0.52929387  0.47303407  0.61509107
   0.61192500  0.48189582  0.50967245
   0.42018343  0.50073230  0.61037777
   0.54390602  0.43318590  0.71797456
   0.58331203  0.52850847  0.41193265
   0.71654338  0.43850684  0.50721439
Direct configuration=   104
   0.53005633  0.47283559  0.61664353
   0.61212315  0.48193482  0.51018676
   0.41812390  0.50118815  0.60961127
   0.54502277  0.43212569  0.72083015
   0.58033722  0.52904921  0.40782061
   0.71925232  0.43902921  0.50412517
Direct configuration=   105
   0.53059531  0.47257041  0.61812881
   0.61224200  0.48207605  0.51058803
   0.41779291  0.50140491  0.60867066
   0.54668321  0.43116833  0.72241605
   0.57756115  0.52852568  0.40547392
   0.72070823  0.44040276  0.50135117
Direct configuration=   106
   0.53098517  0.47238719  0.61970866
   0.61242558  0.48222652  0.51092267
   0.41944015  0.50154991  0.60775813
   0.54867429  0.43058247  0.72260698
   0.57511917  0.52678286  0.40545381
   0.72071314  0.44234265  0.49907012
Direct configuration=   107
   0.53127215  0.47230145  0.62130127
   0.61254869  0.48238199  0.51103095
   0.42283515  0.50154484  0.60690191
   0.55102885  0.43030981  0.72171124
   0.57313600  0.52410091  0.40747577
   0.71923037  0.44485441  0.49771724
Direct configuration=   108
   0.53161600  0.47223201  0.62273881
   0.61263835  0.48262253  0.51114468
   0.42722407  0.50112394  0.60611470
   0.55384182  0.42979085  0.72000472
   0.57160552  0.52129581  0.41134073
   0.71691846  0.44754896  0.49695300
Direct configuration=   109
   0.53191410  0.47208769  0.62391569
   0.61260201  0.48274840  0.51127155
   0.43165470  0.50065364  0.60535792
   0.55710904  0.42915306  0.71862910
   0.57030197  0.51849100  0.41644731
   0.71419197  0.45039728  0.49698971
Direct configuration=   110
   0.53237538  0.47192223  0.62473026
   0.61249146  0.48289878  0.51151198
   0.43502444  0.50076198  0.60423538
   0.56084201  0.42834413  0.71795945
   0.56848040  0.51568695  0.42217020
   0.71177166  0.45341804  0.49772687
Direct configuration=   111
   0.53305263  0.47175669  0.62519679
   0.61208434  0.48306641  0.51202881
   0.43590115  0.50135964  0.60331440
   0.56452923  0.42705312  0.71832495
   0.56557752  0.51386186  0.42638386
   0.71093971  0.45591460  0.49844707
Direct configuration=   112
   0.53398169  0.47149321  0.62544584
   0.61151904  0.48314231  0.51291138
   0.43413988  0.50222983  0.60273419
   0.56825305  0.42605687  0.71914642
   0.56134646  0.51291332  0.42833638
   0.71235148  0.45778045  0.49916347
Direct configuration=   113
   0.53502173  0.47130353  0.62551889
   0.61092518  0.48308579  0.51418525
   0.43124704  0.50281178  0.60305810
   0.57176933  0.42564272  0.71979619
   0.55603410  0.51288747  0.42788276
   0.71529749  0.45940935  0.50015416
Direct configuration=   114
   0.53609206  0.47101731  0.62550092
   0.61034874  0.48303357  0.51549671
   0.42818509  0.50302846  0.60429893
   0.57470380  0.42614006  0.71990311
   0.55061583  0.51289937  0.42617467
   0.71844235  0.46051570  0.50137288
Direct configuration=   115
   0.53714659  0.47068722  0.62543708
   0.60972710  0.48301171  0.51667265
   0.42652629  0.50232758  0.60640289
   0.57696638  0.42720537  0.71978022
   0.54606205  0.51267928  0.42441407
   0.72132375  0.46153854  0.50260631
Direct configuration=   116
   0.53794739  0.47026403  0.62542752
   0.60906174  0.48301450  0.51758208
   0.42642322  0.50087826  0.60953590
   0.57870903  0.42899616  0.71924286
   0.54277391  0.51242425  0.42341547
   0.72259943  0.46304999  0.50361723
Direct configuration=   117
   0.53853201  0.46986823  0.62562086
   0.60839533  0.48305733  0.51822582