CH4 AIMD Simulation                     
           1
    10.000000    0.000000    0.000000
     0.000000   10.000000    0.000000
     0.000000    0.000000   10.000000
   C    H 
     2     6
Direct configuration=     1
   0.50000000  0.50000000  0.50000000
   0.65000000  0.50000000  0.50000000
   0.45000000  0.60000000  0.50000000
   0.45000000  0.40000000  0.50000000
   0.50000000  0.50000000  0.61000000
   0.50000000  0.50000000  0.39000000
   0.70000000  0.60000000  0.50000000
   0.70000000  0.40000000  0.50000000
Direct configuration=     2
   0.50001380  0.49993107  0.49984187
   0.64949359  0.49988602  0.50077980
   0.44835255  0.59788164  0.50301693
   0.45095248  0.39985884  0.49615641
   0.50254826  0.49958532  0.60585846
   0.49993653  0.50145501  0.38534846
   0.70071975  0.59630432  0.50449681
   0.70340712  0.40711177  0.49765613
Direct configuration=     3
   0.49998899  0.49983627  0.49918164
   0.64918686  0.49983126  0.50177684
   0.44603320  0.59582544  0.50625255
   0.45125166  0.39984434  0.49272930
   0.50684034  0.49905959  0.60467495
   0.49750571  0.50302872  0.38005851
   0.70134229  0.59242476  0.50920995
   0.70692564  0.41381043  0.49556254
Direct configuration=     4
   0.49993866  0.49969931  0.49789930
   0.64896049  0.49987879  0.50302652
   0.44315547  0.59389436  0.50967118
   0.45099774  0.39999998  0.48986591
   0.51332061  0.49830808  0.60696840
   0.49256741  0.50481691  0.37452661
   0.70212037  0.58934122  0.51420224
   0.71106069  0.41870689  0.49364565
Direct configuration=     5
   0.49985367  0.49952034  0.49602654
   0.64870368  0.50002125  0.50453855
   0.43995760  0.59197600  0.51327613
   0.45034479  0.40036715  0.48772819
   0.52229804  0.49724125  0.61184447
   0.48548884  0.50688762  0.36904766
   0.70325398  0.58786023  0.51955321
   0.71598442  0.42117370  0.49176307
Direct configuration=     6
   0.49970167  0.49932029  0.49362261
   0.64837325  0.50020868  0.50631647
   0.43678923  0.58978641  0.51711447
   0.44947171  0.40095374  0.48648435
   0.53407001  0.49580897  0.61792281
   0.47695835  0.50926409  0.36407207
   0.70466850  0.58819567  0.52526711
   0.72116422  0.42164866  0.48987091
Direct configuration=     7
   0.49943182  0.49913896  0.49070112
   0.64797859  0.50039767  0.50837543
   0.43405251  0.58698463  0.52123391
   0.44855422  0.40168851  0.48626163
   0.54902471  0.49397526  0.62417453
   0.46784299  0.51190897  0.36019096
   0.70597243  0.58989877  0.53116139
   0.72565680  0.42110938  0.48806906
Direct configuration=     8
   0.49899092  0.49902637  0.48724530
   0.64753261  0.50057251  0.51075311
   0.43211903  0.58331262  0.52563183
   0.44774115  0.40240451  0.48709685
   0.56759049  0.49169176  0.62992941
   0.45902062  0.51472414  0.35800013
   0.70666626  0.59220558  0.53686139
   0.72861836  0.42047922  0.48652138
Direct configuration=     9
   0.49834437  0.49902592  0.48326821
   0.64704183  0.50073177  0.51349540
   0.43124332  0.57869973  0.53022027
   0.44714557  0.40287911  0.48890984
   0.58984718  0.48890495  0.63449893
   0.45125570  0.51757469  0.35798230
   0.70638291  0.59443112  0.54189638
   0.72954171  0.42042082  0.48536454
Direct configuration=    10
   0.49748373  0.49915599  0.47884987
   0.64653022  0.50087404  0.51662200
   0.43150714  0.57327684  0.53484896
   0.44686279  0.40294120  0.49151451
   0.61508659  0.48558339  0.63714053
   0.44517003  0.52032258  0.36042642
   0.70499055  0.59617203  0.54581105
   0.72828136  0.42134329  0.48464595
Direct configuration=    11
   0.49642280  0.49940077  0.47413661
   0.64604742  0.50099728  0.52008793
   0.43282317  0.56730449  0.53935061
   0.44699894  0.40258271  0.49462560
   0.64178836  0.48170416  0.63757084
   0.44123387  0.52285865  0.36531112
   0.70256507  0.59734315  0.54824341
   0.72503076  0.42342584  0.48426746
Direct configuration=    12
   0.49519572  0.49971062  0.46933932
   0.64564258  0.50110749  0.52378022
   0.43498184  0.56108424  0.54355203
   0.44766514  0.40198171  0.49784642
   0.66813474  0.47722324  0.63627158
   0.43964766  0.52516288  0.37208927
   0.69930097  0.59812155  0.54897222
   0.72031085  0.42660012  0.48390969
Direct configuration=    13
   0.49386968  0.50000335  0.46474410
   0.64533505  0.50122214  0.52758168
   0.43771027  0.55489642  0.54726081
   0.44893253  0.40141790  0.50067789
   0.69263300  0.47214940  0.63397473
   0.44003688  0.52745597  0.37931851
   0.69542480  0.59883676  0.54796118
   0.71492460  0.43052421  0.48298189
Direct configuration=    14
   0.49257545  0.50015611  0.46072178
   0.64512510  0.50136164  0.53142853
   0.44071849  0.54898130  0.55025312
   0.45078744  0.40114892  0.50257153
   0.71422094  0.46666731  0.63105457
   0.44103934  0.53047399  0.38431869
   0.69116392  0.59984281  0.54537987
   0.70979857  0.43465599  0.48070483
Direct configuration=    15
   0.49148340  0.50001566  0.45763999
   0.64502292  0.50153412  0.53528882
   0.44371758  0.54355517  0.55230390
   0.45311355  0.40130156  0.50301336
   0.73218190  0.46108839  0.62760867
   0.44066114  0.53547534  0.38403864
   0.68674568  0.60141676  0.54156011
   0.70565284  0.43854835  0.47640738
Direct configuration=    16
   0.49062178  0.49951743  0.45558173
   0.64507371  0.50171997  0.53911281
   0.44641321  0.53884381  0.55326200
   0.45569731  0.40177697  0.50162258
   0.74612790  0.45573698  0.62365147
   0.43856680  0.54290050  0.37828752
   0.68235877  0.60365062  0.53691913
   0.70264750  0.44222869  0.46998109
Direct configuration=    17
   0.48984796  0.49876684  0.45431525
   0.64535679  0.50188445  0.54280792
   0.44850738  0.53509359  0.55310841
   0.45825147  0.40218756  0.49822800
   0.75589468  0.45090947  0.61913710
   0.43652899  0.55145912  0.37006058
   0.67811024  0.60634229  0.53191515
   0.70041294  0.44618532  0.46210446
Direct configuration=    18
   0.48904712  0.49792392  0.45358047
   0.64594889  0.50201226  0.54625770
   0.44972724  0.53253928  0.55196740
   0.46045855  0.40186992  0.49288067
   0.76141833  0.44687423  0.61396905
   0.43610526  0.55952814  0.36217876
   0.67404304  0.60901875  0.52704166
   0.69846055  0.45093621  0.45390619
Direct configuration=    19
   0.48818801  0.49712326  0.45319329
   0.64689118  0.50211741  0.54935699
   0.44985273  0.53134200  0.55008988
   0.46204478  0.40004442  0.48578231
   0.76268157  0.44387116  0.60804268
   0.43795826  0.56601305  0.35619983
   0.67020302  0.61112677  0.52280852
   0.69647351  0.45672297  0.44644532
Direct configuration=    20
   0.48728544  0.49644683  0.45303509
   0.64818219  0.50222697  0.55202803
   0.44872416  0.53152684  0.54780408
   0.46288791  0.39623380  0.47712371
   0.75973041  0.44210166  0.60131179
   0.44219835  0.57031945  0.35280755
   0.66668359  0.61223791  0.51968967
   0.69432383  0.46350940  0.44045002
Direct configuration=    21
   0.48636367  0.49589909  0.45303560
   0.64978081  0.50236719  0.55421434
   0.44624597  0.53294342  0.54542563
   0.46309396  0.39078063  0.46699850
   0.75277963  0.44167328  0.59387649
   0.44868619  0.57217191  0.35223430
   0.66362120  0.61215563  0.51807127
   0.69199167  0.47109878  0.43631486
Direct configuration=    22
   0.48544353  0.49541297  0.45315263
   0.65159241  0.50256998  0.55586344
   0.44240965  0.53526590  0.54314888
   0.46292987  0.38487847  0.45556676
   0.74253573  0.44239768  0.58611676
   0.45716232  0.57151151  0.35446238
   0.66116661  0.61094354  0.51822597
   0.68950718  0.47922970  0.43418733
Direct configuration=    23
   0.48454704  0.49489576  0.45336157
   0.65341942  0.50291111  0.55690769
   0.43732695  0.53802909  0.54096980
   0.46266453  0.37998784  0.44325509
   0.73089335  0.44324860  0.57886892
   0.46726892  0.56850965  0.35921897
   0.65945306  0.60894072  0.52030240
   0.68692802  0.48762582  0.43404077
Direct configuration=    24
   0.48370228  0.49426218  0.45367078
   0.65490652  0.50357804  0.55726329
   0.43123743  0.54069712  0.53868868
   0.46247546  0.37725373  0.43072248
   0.72164168  0.44145193  0.57343839
   0.47854762  0.56371308  0.36579811
   0.65857316  0.60680989  0.52432067
   0.68434437  0.49601537  0.43570265
Direct configuration=    25
   0.48293668  0.49342740  0.45414841
   0.65572794  0.50477291  0.55690421
   0.42446544  0.54276106  0.53599390
   0.46244822  0.37729395  0.41869900
   0.71822077  0.43354121  0.57072876
   0.49053811  0.55827665  0.37280081
   0.65856604  0.60561428  0.53017990
   0.68191063  0.50412898  0.43884459
Direct configuration=    26
   0.48225217  0.49230103  0.45491549
   0.65601129  0.50625414  0.55594891
   0.41736281  0.54383400  0.53255456
   0.46260523  0.38023301  0.40785356
   0.71863966  0.42091634  0.57016681
   0.50307034  0.55392261  0.37824832
   0.65940026  0.60675760  0.53775461
   0.67988922  0.51169038  0.44292981
Direct configuration=    27
   0.48162105  0.49085867  0.45603229
   0.65601702  0.50756681  0.55454354
   0.41027923  0.54370616  0.52810383
   0.46291701  0.38578830  0.39871678
   0.71937720  0.40794594  0.57085930
   0.51629776  0.55188651  0.38092700
   0.66096775  0.61111425  0.54719375
   0.67864025  0.51847046  0.44717304
Direct configuration=    28
   0.48106189  0.48922630  0.45738542
   0.65586131  0.50852107  0.55280401
   0.40353611  0.54235427  0.52251474
   0.46330773  0.39333599  0.39160733
   0.71880486  0.39744903  0.57229478
   0.52978509  0.55175865  0.38172276
   0.66304412  0.61776706  0.55888724
   0.67858756  0.52439133  0.45058797
Direct configuration=    29
   0.48066474  0.48759767  0.45880121
   0.65557698  0.50916417  0.55086516
   0.39739931  0.53992112  0.51583908
   0.46368273  0.40197140  0.38653341
   0.71649987  0.39061657  0.57417783
   0.54222548  0.55238073  0.38232865
   0.66527352  0.62441333  0.57279600
   0.68016981  0.52959039  0.45222234
Direct configuration=    30
   0.48052443  0.48613363  0.46017871
   0.65517378  0.50959362  0.54887063
   0.39205792  0.53668321  0.50830737
   0.46397256  0.41059269  0.38310103
   0.71247953  0.38783527  0.57627352
   0.55228905  0.55298228  0.38377502
   0.66727117  0.62888929  0.58816984
   0.68370859  0.53433722  0.45168154
Direct configuration=    31
   0.48070482  0.48494405  0.46149835
   0.65466561  0.50987593  0.54691067
   0.38760918  0.53300582  0.50029776
   0.46417184  0.41806095  0.38054198
   0.70689444  0.38916458  0.57835634
   0.55909096  0.55328198  0.38636663
   0.66873004  0.62989867  0.60388792
   0.68921939  0.53880530  0.44954868
Direct configuration=    32
   0.48123823  0.48408762  0.46277372
   0.65407863  0.51005168  0.54501370
   0.38407281  0.52928139  0.49227235
   0.46437573  0.42349489  0.37801927
   0.69995713  0.39447429  0.58020536
   0.56217733  0.55326349  0.39004702
   0.66944959  0.62694211  0.61882489
   0.69632665  0.54293670  0.44709640
Direct configuration=    33
   0.48212857  0.48356852  0.46399701
   0.65344071  0.51016019  0.54318791
   0.38144301  0.52585767  0.48469190
   0.46480620  0.42654332  0.37512913
   0.69198606  0.40333181  0.58163501
   0.56141213  0.55302309  0.39463502
   0.66931453  0.62004550  0.63201095
   0.70436544  0.54652307  0.44559993
Direct configuration=    34
   0.48335068  0.48334716  0.46511958
   0.65276013  0.51027747  0.54144320
   0.37975064  0.52297179  0.47795571
   0.46577904  0.42736465  0.37213529
   0.68353558  0.41459542  0.58263546
   0.55694191  0.55274784  0.39986027
   0.66826237  0.60956350  0.64265584
   0.71255359  0.54933128  0.44593186
Direct configuration=    35
   0.48484777  0.48335902  0.46608182
   0.65200433  0.51057168  0.53976687
   0.37907651  0.52070986  0.47239638
   0.46760512  0.42636193  0.36970752
   0.67556231  0.42571294  0.58374906
   0.54928847  0.55282627  0.40524693
   0.66625979  0.59611053  0.65014914
   0.72012721  0.55117676  0.44850236
Direct configuration=    36
   0.48652988  0.48351537  0.46685814
   0.65110478  0.51131045  0.53808093
   0.37948129  0.51900719  0.46831380
   0.47050863  0.42396862  0.36853166
   0.66930614  0.43256020  0.58647192
   0.53949046  0.55407844  0.40992417
   0.66329682  0.58057455  0.65409639
   0.72643678  0.55195806  0.45333888
Direct configuration=    37
   0.48829350  0.48369354  0.46747631
   0.65002854  0.51260490  0.53633686
   0.38089868  0.51768251  0.46599921
   0.47460717  0.42059518  0.36909990
   0.66533915  0.43248218  0.59192858
   0.52896357  0.55787577  0.41260555
   0.65939493  0.56412537  0.65440357
   0.73106042  0.55169847  0.46016317
Direct configuration=    38
   0.49009871  0.48379218  0.46796698
   0.64879893  0.51416276  0.53469889
   0.38307180  0.51649187  0.46572901
   0.47991532  0.41666076  0.37165295
   0.66313927  0.42741080  0.59846035
   0.51865892  0.56531703  0.41231566
   0.65462525  0.54809919  0.65139148
   0.73393987  0.55058352  0.46843085
Direct configuration=    39
   0.49201718  0.48385731  0.46827622
   0.64739587  0.51562034  0.53335940
   0.38560653  0.51519354  0.46772618
   0.48632418  0.41259884  0.37616422
   0.66213321  0.42024250  0.60364682
   0.50850349  0.57556382  0.40950344
   0.64911614  0.53375088  0.64593024
   0.73547630  0.54892438  0.47738364
Direct configuration=    40
   0.49413709  0.48404373  0.46830766
   0.64574172  0.51675341  0.53236684
   0.38813826  0.51359609  0.47211234
   0.49357740  0.40878073  0.38232663
   0.66201577  0.41257784  0.60618990
   0.49833788  0.58633272  0.40550115
   0.64301201  0.52204453  0.63960804
   0.73648427  0.54709362  0.48616052
Direct configuration=    41
   0.49649200  0.48448190  0.46801063
   0.64376090  0.51745974  0.53164214
   0.39050141  0.51155048  0.47889284
   0.50129764  0.40539577  0.38956207
   0.66260794  0.40511493  0.60570690
   0.48842571  0.59569319  0.40135230
   0.63637700  0.51348089  0.63461008
   0.73786279  0.54544368  0.49404641
Direct configuration=    42
   0.49905853  0.48525019  0.46738849
   0.64144940  0.51772048  0.53107595
   0.39284798  0.50890467  0.48794937
   0.50905156  0.40237333  0.39711124
   0.66374691  0.39826362  0.60223943
   0.47917898  0.60257695  0.39759268
   0.62917919  0.50801583  0.63280485
   0.74000459  0.54418491  0.50074607
Direct configuration=    43
   0.50176165  0.48639317  0.46647162
   0.63889430  0.51755687  0.53065044
   0.39567190  0.50549118  0.49899028
   0.51641709  0.39945147  0.40422805
   0.66523180  0.39244434  0.59599239
   0.47095629  0.60650363  0.39446579
   0.62147743  0.50532467  0.63451956
   0.74247692  0.54334084  0.50637089
Direct configuration=    44
   0.50448328  0.48792204  0.46529382
   0.63623420  0.51699180  0.53046693
   0.39967704  0.50118287  0.51147809
   0.52301320  0.39642208  0.41040475
   0.66682313  0.38812361  0.58724047
   0.46403712  0.60726660  0.39211594
   0.61359337  0.50513665  0.63851071
   0.74434849  0.54284799  0.51116768
Direct configuration=    45
   0.50707895  0.48980134  0.46388153
   0.63362223  0.51604392  0.53066896
   0.40552567  0.49597521  0.52460697
   0.52848908  0.39338368  0.41545155
   0.66827507  0.38576106  0.57631749
   0.45865640  0.60476511  0.39068756
   0.60601127  0.50723173  0.64307796
   0.74473063  0.54267583  0.51531258
Direct configuration=    46
   0.50939642  0.49194972  0.46225520
   0.63121100  0.51473489  0.53137668
   0.41359664  0.49002560  0.53736951
   0.53252117  0.39076388  0.41936391
   0.66935702  0.38577324  0.56366980
   0.45503445  0.59896418  0.39035686
   0.59921717  0.51130344  0.64686101
   0.74308778  0.54288078  0.51886639
Direct configuration=    47
   0.51129444  0.49425722  0.46043481
   0.62913942  0.51309485  0.53266299
   0.42384369  0.48362300  0.54868875
   0.53484101  0.38911945  0.42214381
   0.66986944  0.38847075  0.54993810
   0.45336875  0.58995701  0.39130461
   0.59365111  0.51690638  0.64901796
   0.73932492  0.54361771  0.52180909
Direct configuration=    48
   0.51267044  0.49659591  0.45845192
   0.62750827  0.51117062  0.53454386
   0.43577394  0.47711012  0.55756718
   0.53526761  0.38890924  0.42372305
   0.66968929  0.39389703  0.53599473
   0.45372833  0.57816393  0.39358638
   0.58970698  0.52348395  0.64917303
   0.73379740  0.54515191  0.52408330
Direct configuration=    49
   0.51350766  0.49880186  0.45638329
   0.62635038  0.50904234  0.53696924
   0.44853718  0.47080135  0.56322229
   0.53374339  0.39034488  0.42398693
   0.66886283  0.40157122  0.52286946
   0.45569472  0.56476959  0.39677327
   0.58768680  0.53042066  0.64736488
   0.72729014  0.54787566  0.52562589
Direct configuration=    50
   0.51394837  0.50063024  0.45441678
   0.62561791  0.50684361  0.53982399
   0.46110347  0.46492880  0.56519447
   0.53039197  0.39330440  0.42283353
   0.66773431  0.41024786  0.51149363
   0.45753782  0.55236984  0.39920867
   0.58769504  0.53710511  0.64405410
   0.72085676  0.55227552  0.52638975
Direct configuration=    51
   0.51433069  0.50177843  0.45288065
   0.62521944  0.50476152  0.54295389
   0.47245665  0.45962562  0.56342085
   0.52558273  0.39728052  0.42020904
   0.66699841  0.41803087  0.50229651
   0.45557164  0.54473395  0.39758573
   0.58952454  0.54304310  0.64014621
   0.71537946  0.55873468  0.52637297
Direct configuration=    52
   0.51484528  0.50220971  0.45191465
   0.62510534  0.50298043  0.54619719
   0.48170305  0.45491337  0.55828458
   0.51993458  0.40137806  0.41607539
   0.66745467  0.42323430  0.49506979
   0.44791614  0.54295971  0.39066153
   0.59263483  0.54802147  0.63691654
   0.71105981  0.56715434  0.52567089
Direct configuration=    53
   0.51525537  0.50221395  0.45123466
   0.62531294  0.50159801  0.54937751
   0.48807129  0.45065833  0.55064315
   0.51416360  0.40459031  0.41035526
   0.66947834  0.42546819  0.48953246
   0.43780849  0.54455431  0.38192206
   0.59629992  0.55217130  0.63568518
   0.70746237  0.57677203  0.52450908
Direct configuration=    54
   0.51535429  0.50201407  0.45055422
   0.62590979  0.50062660  0.55231072
   0.49090157  0.44650597  0.54177536
   0.50889675  0.40641721  0.40303430
   0.67283475  0.42556447  0.48586839
   0.42836049  0.54761521  0.37448297
   0.59989886  0.55570287  0.63723897
   0.70403465  0.58647723  0.52318922
Direct configuration=    55
   0.51509346  0.50170528  0.44969675
   0.62691849  0.50006670  0.55486386
   0.48971252  0.44187025  0.53314341
   0.50466174  0.40719168  0.39436512
   0.67701874  0.42465604  0.48454529
   0.42099407  0.55127428  0.36975380
   0.60313521  0.55847830  0.64141446
   0.70042213  0.59524620  0.52200052
Direct configuration=    56
   0.51449557  0.50131084  0.44857229
   0.62830061  0.49994060  0.55697707
   0.48432956  0.43620078  0.52581670
   0.50193108  0.40774723  0.38487294
   0.68157526  0.42362124  0.48597143
   0.41622535  0.55510898  0.36820882
   0.60600218  0.55996117  0.64730225
   0.69646162  0.60232957  0.52117447
Direct configuration=    57
   0.51358254  0.50079829  0.44719384
   0.62997899  0.50027620  0.55863820
   0.47508333  0.42956153  0.51981840
   0.50107103  0.40889894  0.37517436
   0.68620590  0.42298686  0.49034448
   0.41425219  0.55885183  0.36993413
   0.60861805  0.55954850  0.65380585
   0.69210193  0.60724656  0.52087413
Direct configuration=    58
   0.51234400  0.50008852  0.44565116
   0.63185988  0.50108871  0.55986070
   0.46294257  0.42281966  0.51428926
   0.50227150  0.41120259  0.36584958
   0.69075839  0.42298674  0.49760998
   0.41518378  0.56229187  0.37484726
   0.61109712  0.55683392  0.66000601
   0.68736381  0.60972553  0.52119496
Direct configuration=    59
   0.51075233  0.49910119  0.44404098
   0.63384337  0.50237448  0.56067797
   0.44929673  0.41708227  0.50831907
   0.50552389  0.41494803  0.35740428
   0.69520314  0.42360989  0.50744172
   0.41905312  0.56526601  0.38273295
   0.61348696  0.55168007  0.66525827
   0.68234719  0.60968946  0.52216444
Direct configuration=    60
   0.50880439  0.49778625  0.44243813
   0.63582490  0.50410429  0.56114505
   0.43554739  0.41314223  0.50140807
   0.51063419  0.42022040  0.35024291
   0.69962810  0.42462441  0.51925520
   0.42566599  0.56774429  0.39315968
   0.61575513  0.54421076  0.66917710
   0.67727680  0.60735064  0.52371945
Direct configuration=    61
   0.50656210  0.49610691  0.44091412
   0.63769555  0.50619754  0.56133809
   0.42284522  0.41134957  0.49343354
   0.51724968  0.42696044  0.34463015
   0.70420939  0.42566508  0.53230508
   0.43430122  0.57009179  0.40533403
   0.61779517  0.53479990  0.67161140
   0.67257072  0.60345444  0.52563446
Direct configuration=    62
   0.50416977  0.49399280  0.43955342
   0.63935118  0.50846997  0.56135241
   0.41203326  0.41173066  0.48447997
   0.52490029  0.43501698  0.34065619
   0.70906947  0.42648644  0.54585229
   0.44348577  0.57349958  0.41811125
   0.61943632  0.52404931  0.67261922
   0.66889474  0.59963666  0.52740111
Direct configuration=    63
   0.50178667  0.49135037  0.43841505
   0.64071502  0.51060738  0.56130379
   0.40369702  0.41413164  0.47472095
   0.53307002  0.44418425  0.33822822
   0.71409686  0.42724308  0.55922545
   0.45168083  0.57974517  0.43058025
   0.62046044  0.51272495  0.67241336
   0.66705702  0.59845630  0.52820878
Direct configuration=    64
   0.49944188  0.48825057  0.43748597
   0.64177360  0.51230324  0.56129721
   0.39820079  0.41828138  0.46438078
   0.54128779  0.45421338  0.33711890
   0.71899109  0.42841851  0.57173194
   0.45891537  0.58888683  0.44262303
   0.62062853  0.50164827  0.67127517
   0.66748731  0.60189978  0.52748539
Direct configuration=    65
   0.49709314  0.48499089  0.43673789
   0.64259766  0.51349202  0.56135937
   0.39561639  0.42375970  0.45374741
   0.54914790  0.46483134  0.33711433
   0.72348734  0.43047855  0.58265572
   0.46617016  0.59846833  0.45411523
   0.61970822  0.49157937  0.66947824
   0.66969379  0.60910449  0.52574292
Direct configuration=    66
   0.49479428  0.48188252  0.43614559
   0.64328967  0.51429535  0.56146312
   0.39549586  0.42991671  0.44318613
   0.55621086  0.47575570  0.33818848
   0.72747964  0.43367066  0.59138467
   0.47373797  0.60606390  0.46457617
   0.61750836  0.48313514  0.66723493
   0.67269104  0.61736553  0.52415133
Direct configuration=    67
   0.49272366  0.47916037  0.43566516
   0.64392809  0.51483685  0.56159445
   0.39657441  0.43582471  0.43306172
   0.56194587  0.48665081  0.34048535
   0.73098246  0.43803681  0.59751264
   0.48125812  0.61042027  0.47356583
   0.61392142  0.47675274  0.66466679
   0.67564346  0.62441403  0.52362254
Direct configuration=    68
   0.49113181  0.47699690  0.43525871
   0.64456048  0.51518891  0.56176617
   0.39683221  0.44045189  0.42351450
   0.56583146  0.49710679  0.34411854
   0.73404345  0.44348348  0.60086006
   0.48818252  0.61113645  0.48083410
   0.60895904  0.47269384  0.66181104
   0.67800126  0.62898377  0.52459597
Direct configuration=    69
   0.49021173  0.47549006  0.43492356
   0.64521266  0.51538862  0.56200548
   0.39467252  0.44322154  0.41435334
   0.56751671  0.50669706  0.34899970
   0.73669418  0.44981492  0.60144960
   0.49399273  0.60820810  0.48626957
   0.60277147  0.47106657  0.65864935
   0.67942010  0.63054797  0.52716377
Direct configuration=    70
   0.48995979  0.47464652  0.43466729
   0.64589235  0.51545688  0.56234129
   0.39046961  0.44439649  0.40548838
   0.56691749  0.51506223  0.35478182
   0.73897223  0.45671770  0.59949388
   0.49823123  0.60178644  0.48983587
   0.59565356  0.47183936  0.65514260
   0.67968584  0.62906579  0.53118733
Direct configuration=    71
   0.49022025  0.47441969  0.43447979
   0.64658494  0.51540335  0.56279671
   0.38603471  0.44462327  0.39728137
   0.56425256  0.52198381  0.36086200
   0.74099733  0.46372115  0.59540075
   0.50047047  0.59213484  0.49156248
   0.58804327  0.47484047  0.65126718
   0.67868454  0.62493188  0.53633817
Direct configuration=    72
   0.49081404  0.47473704  0.43434915
   0.64724598  0.51521329  0.56338667
   0.38307283  0.44439833  0.39027522
   0.56006742  0.52746770  0.36638552
   0.74305149  0.47019649  0.58975635
   0.50029908  0.57977249  0.49162879
   0.58049374  0.47974706  0.64705925
   0.67642660  0.61912449  0.54208986
Direct configuration=    73
   0.49158537  0.47546454  0.43426096
   0.64780196  0.51481991  0.56411856
   0.38261860  0.44396196  0.38489436
   0.55521524  0.53184388  0.37029567
   0.74554409  0.47546645  0.58322297
   0.49737905  0.56589250  0.49065738
   0.57359573  0.48607595  0.64266425
   0.67311608  0.61345269  0.54772892
Direct configuration=    74
   0.49240814  0.47633158  0.43413367
   0.64817749  0.51409896  0.56498674
   0.38513354  0.44335674  0.38136092
   0.55064743  0.53576968  0.37156974
   0.74874779  0.47902783  0.57636953
   0.49155242  0.55314591  0.49038823
   0.56784442  0.49319297  0.63837732
   0.66915045  0.61044563  0.55249901
Direct configuration=    75
   0.49323768  0.47693746  0.43373077
   0.64835154  0.51296753  0.56595214
   0.39064063  0.44246245  0.37968994
   0.54692962  0.53993312  0.36977485
   0.75245119  0.48074647  0.56957318
   0.48264693  0.54577545  0.49419858
   0.56351139  0.50037543  0.63463980
   0.66484218  0.61195833  0.55593219
Direct configuration=    76
   0.49415614  0.47719082  0.43291347
   0.64837927  0.51153045  0.56693433
   0.39872301  0.44095840  0.37964164
   0.54390624  0.54458662  0.36551537
   0.75594518  0.48084145  0.56308181
   0.47025425  0.54487863  0.50359828
   0.56064394  0.50693180  0.63196887
   0.66018454  0.61727203  0.55802209
Direct configuration=    77
   0.49521402  0.47749137  0.43195642
   0.64832921  0.51001383  0.56783967
   0.40842722  0.43828606  0.38064406
   0.54101399  0.54946995  0.36005941
   0.75837389  0.47970953  0.55711358
   0.45536216  0.54637258  0.51484688
   0.55918451  0.51232843  0.63080732
   0.65519054  0.62390855  0.55897793
Direct configuration=    78
   0.49644396  0.47817416  0.43115024
   0.64822847  0.50860699  0.56858609
   0.41823111  0.43362865  0.38179676
   0.53774771  0.55410155  0.35465740
   0.75906742  0.47776504  0.55187657
   0.43978718  0.54737487  0.52445803
   0.55904630  0.51624261  0.63136959
   0.65010967  0.62965885  0.55900853
Direct configuration=    79
   0.49790951  0.47941795  0.43065356
   0.64805921  0.50742054  0.56911021
   0.42659315  0.42600849  0.38215207
   0.53382979  0.55803651  0.35021385
   0.75768496  0.47535110  0.54754739
   0.42487262  0.54695041  0.53099706
   0.56014386  0.51851306  0.63364098
   0.64529526  0.63322335  0.55828594
Direct configuration=    80
   0.49959069  0.48126551  0.43049609
   0.64776972  0.50651241  0.56936758
   0.43333433  0.41509591  0.38155182
   0.52918752  0.56097054  0.34725763
   0.75425003  0.47269601  0.54424001
   0.41142743  0.54496940  0.53415193
   0.56242893  0.51906133  0.63747418
   0.64107591  0.63400616  0.55696180
Direct configuration=    81
   0.50134393  0.48359575  0.43060547
   0.64728281  0.50591694  0.56933326
   0.43985229  0.40208840  0.38091984
   0.52389700  0.56276820  0.34600979
   0.74916201  0.46988242  0.54196570
   0.39996931  0.54154206  0.53401070
   0.56589445  0.51784552  0.64264780
   0.63771923  0.63183654  0.55518208
Direct configuration=    82
   0.50301933  0.48619445  0.43090947
   0.64650188  0.50565813  0.56900497
   0.44754771  0.38901984  0.38129616
   0.51814754  0.56348467  0.34641574
   0.74318736  0.46681616  0.54058936
   0.39089001  0.53683440  0.53076464
   0.57054680  0.51485663  0.64886946
   0.63543125  0.62684699  0.55309229
Direct configuration=    83
   0.50452380  0.48884706  0.43139762
   0.64532472  0.50574088  0.56840614
   0.45701706  0.37766228  0.38320052
   0.51220563  0.56339446  0.34813206
   0.73733910  0.46322752  0.53982226
   0.38453262  0.53102059  0.52462627
   0.57637744  0.51015030  0.65574606
   0.63434760  0.61954908  0.55082987
Direct configuration=    84
   0.50580697  0.49136762  0.43211663
   0.64367843  0.50611122  0.56758550
   0.46823914  0.36918529  0.38668988
   0.50636574  0.56299494  0.35052348
   0.73250406  0.45879600  0.53931117
   0.38122763  0.52427305  0.51582637
   0.58333972  0.50390153  0.66274088
   0.63450454  0.61113086  0.54848603
Direct configuration=    85
   0.50684040  0.49359875  0.43313925
   0.64156403  0.50659169  0.56661314
   0.48089208  0.36426341  0.39157104
   0.50089248  0.56290414  0.35277372
   0.72894668  0.45343174  0.53880432
   0.38129363  0.51676770  0.50465298
   0.59131332  0.49646502  0.66916583
   0.63582617  0.60388060  0.54600617
Direct configuration=    86
   0.50761049  0.49542044  0.43451968
   0.63905653  0.50687961  0.56557417
   0.49453800  0.36324732  0.39753681
   0.49601324  0.56359657  0.35419311
   0.72619408  0.44747544  0.53821629
   0.38497176  0.50869777  0.49153685
   0.60005819  0.48839165  0.67426192
   0.63825724  0.60096537  0.54312786
Direct configuration=    87
   0.50812826  0.49676598  0.43624850
   0.63624660  0.50676746  0.56452617
   0.50870053  0.36625442  0.40421207
   0.49200837  0.56512538  0.35457892
   0.72346668  0.44155431  0.53751779
   0.39219116  0.50029468  0.47719544
   0.60918774  0.48035185  0.67738266
   0.64200914  0.60397930  0.53980850
Direct configuration=    88
   0.50847142  0.49762481  0.43823535
   0.63322311  0.50635618  0.56344829
   0.52290196  0.37315259  0.41113731
   0.48929448  0.56714319  0.35426809
   0.72012150  0.43629245  0.53662471
   0.40198002  0.49180720  0.46279726
   0.61819801  0.47299501  0.67817086
   0.64726114  0.61079394  0.53677957
Direct configuration=    89
   0.50886278  0.49804769  0.44033771
   0.63009175  0.50586656  0.56229387
   0.53673040  0.38342560  0.41772556
   0.48834083  0.56920254  0.35386010
   0.71580526  0.43216052  0.53538217
   0.41153125  0.48327995  0.44987768
   0.62654610  0.46684807  0.67660348
   0.65371325  0.61806928  0.53494309
Direct configuration=    90
   0.50965630  0.49818751  0.44244661
   0.62695935  0.50545655  0.56105167
   0.54998719  0.39596154  0.42322809
   0.48948278  0.57098493  0.35397127
   0.71045837  0.42943516  0.53359503
   0.41634423  0.47406639  0.43948350