CH4 AIMD Simulation                     
           1
    10.000000    0.000000    0.000000
     0.000000   10.000000    0.000000
     0.000000    0.000000   10.000000
   C    H 
     1     4
Direct configuration=     1
   0.50000000  0.50000000  0.50000000
   0.60000000  0.50000000  0.50000000
   0.40000000  0.50000000  0.50000000
   0.50000000  0.60000000  0.50000000
   0.50000000  0.40000000  0.50000000
Direct configuration=     2
   0.50008637  0.50004386  0.50060235
   0.60217214  0.50187917  0.49619594
   0.39874647  0.49812943  0.50040104
   0.49848768  0.60313676  0.49291458
   0.49955630  0.39632783  0.50325360
Direct configuration=     3
   0.50021569  0.50007667  0.50123982
   0.60715722  0.50375761  0.49228141
   0.39422536  0.49624460  0.50080386
   0.49688368  0.60855561  0.48556065
   0.49914313  0.39052131  0.50646256
Direct configuration=     4
   0.50039661  0.50011314  0.50191657
   0.61290604  0.50557926  0.48836442
   0.38836743  0.49440903  0.50125474
   0.49516761  0.61399746  0.47794710
   0.49879525  0.38465538  0.50941388
Direct configuration=     5
   0.50061358  0.50016843  0.50261775
   0.61766229  0.50727507  0.48480868
   0.38307401  0.49276659  0.50194710
   0.49336012  0.61773846  0.47011124
   0.49853393  0.38019687  0.51169118
Direct configuration=     6
   0.50084697  0.50025105  0.50332590
   0.62041345  0.50885803  0.48233355
   0.37959615  0.49154880  0.50345174
   0.49146550  0.61876451  0.46172857
   0.49835197  0.37781333  0.51253876
Direct configuration=     7
   0.50107828  0.50036223  0.50401836
   0.62082837  0.51044075  0.48180330
   0.37851807  0.49106151  0.50655381
   0.48945658  0.61663038  0.45225538
   0.49824575  0.37751659  0.51112303
Direct configuration=     8
   0.50128765  0.50049871  0.50465864
   0.61897420  0.51214197  0.48372726
   0.37999192  0.49156569  0.51171057
   0.48732309  0.61118856  0.44153533
   0.49824488  0.37911374  0.50707196
Direct configuration=     9
   0.50144840  0.50065697  0.50519250
   0.61520121  0.51408826  0.48830946
   0.38391583  0.49325079  0.51910118
   0.48509459  0.60239819  0.42981876
   0.49839165  0.38237190  0.50040350
Direct configuration=    10
   0.50152063  0.50083469  0.50554440
   0.61021824  0.51645261  0.49555005
   0.38994842  0.49623200  0.52875467
   0.48284775  0.59033104  0.41768769
   0.49872129  0.38695895  0.49141385
Direct configuration=    11
   0.50144843  0.50102696  0.50561565
   0.60518085  0.51948312  0.50529203
   0.39746956  0.50052264  0.54060602
   0.48070593  0.57528792  0.40601432
   0.49924659  0.39237153  0.48063809
Direct configuration=    12
   0.50117579  0.50121849  0.50529557
   0.60141755  0.52345309  0.51726700
   0.40568910  0.50599265  0.55446174
   0.47881403  0.55796302  0.39583898
   0.49995685  0.39795592  0.46882719
Direct configuration=    13
   0.50069465  0.50138948  0.50451646
   0.59945943  0.52841212  0.53099569
   0.41407269  0.51232056  0.56975816
   0.47727533  0.53954273  0.38807584
   0.50084910  0.40303552  0.45692305
Direct configuration=    14
   0.50007323  0.50154228  0.50334688
   0.59841937  0.53391550  0.54540021
   0.42264475  0.51894611  0.58522141
   0.47607888  0.52159374  0.38316492
   0.50197741  0.40702029  0.44601410
Direct configuration=    15
   0.49940968  0.50170492  0.50198669
   0.59700206  0.53922746  0.55884114
   0.43153635  0.52513668  0.59910622
   0.47506548  0.50575712  0.38095642
   0.50348639  0.40940099  0.43723408
Direct configuration=    16
   0.49878325  0.50190923  0.50064763
   0.59455470  0.54373155  0.56976238
   0.44049182  0.53019423  0.60995628
   0.47393323  0.49346012  0.38088769
   0.50563464  0.40968239  0.43161500
Direct configuration=    17
   0.49824215  0.50217628  0.49947192
   0.59110830  0.54707958  0.57709132
   0.44893912  0.53358630  0.61698809
   0.47228537  0.48571515  0.38230969
   0.50878070  0.40747966  0.42995372
Direct configuration=    18
   0.49781098  0.50250416  0.49852483
   0.58703548  0.54916132  0.58022770
   0.45625024  0.53496087  0.61997992
   0.46978817  0.48292661  0.38482277
   0.51321837  0.40287379  0.43268785
Direct configuration=    19
   0.49750631  0.50285321  0.49782408
   0.58280210  0.55007636  0.57891478
   0.46187758  0.53413388  0.61905352
   0.46635814  0.48484905  0.38833749
   0.51891385  0.39667081  0.43982922
Direct configuration=    20
   0.49735057  0.50314199  0.49737662
   0.57891849  0.55013940  0.57317528
   0.46534816  0.53109285  0.61457304
   0.46208433  0.49085900  0.39272174
   0.52547127  0.39017029  0.45103940
Direct configuration=    21
   0.49737040  0.50325842  0.49718907
   0.57604423  0.54991046  0.56338083
   0.46622539  0.52600698  0.60722091
   0.45703434  0.50017754  0.39751902
   0.53228022  0.38476811  0.46564130
Direct configuration=    22
   0.49757272  0.50307084  0.49722037
   0.57513088  0.55025131  0.55043154
   0.46413578  0.51926616  0.59824922
   0.45122925  0.51194938  0.40211903
   0.53865821  0.38164931  0.48258638
Direct configuration=    23
   0.49791966  0.50244993  0.49731246
   0.57736386  0.55227125  0.53570956
   0.45877940  0.51152542  0.58975091
   0.44484306  0.52525052  0.40628922
   0.54400059  0.38152671  0.50053031
Direct configuration=    24
   0.49838274  0.50136030  0.49726298
   0.58315642  0.55665454  0.52032058
   0.44995570  0.50357873  0.58414004
   0.43839681  0.53894349  0.41039127
   0.54791601  0.38448462  0.51802248
Direct configuration=    25
   0.49900715  0.49995646  0.49705043
   0.59081464  0.56268352  0.50473869
   0.43822869  0.49612212  0.58205329
   0.43259599  0.55167991  0.41488195
   0.55028584  0.39003740  0.53375337
Direct configuration=    26
   0.49979105  0.49847056  0.49681956
   0.59783739  0.56889919  0.48962840
   0.42542861  0.48984252  0.58189877
   0.42801450  0.56222379  0.41990465
   0.55122916  0.39740458  0.54676844
Direct configuration=    27
   0.50065589  0.49707491  0.49667912
   0.60266964  0.57426489  0.47587878
   0.41348460  0.48535993  0.58208787
   0.42497094  0.56970973  0.42535519
   0.55099687  0.40579873  0.55656529
Direct configuration=    28
   0.50151269  0.49587569  0.49664161
   0.60480041  0.57835828  0.46421283
   0.40354913  0.48302040  0.58194436
   0.42358573  0.57364903  0.43107254
   0.54989584  0.41450936  0.56310786
Direct configuration=    29
   0.50228675  0.49494703  0.49665076
   0.60427227  0.58112023  0.45508299
   0.39609366  0.48291338  0.58138194
   0.42386061  0.57383226  0.43692232
   0.54830731  0.42282531  0.56684048
Direct configuration=    30
   0.50291911  0.49434995  0.49661254
   0.60131359  0.58262579  0.44873535
   0.39122949  0.48499093  0.58051979
   0.42565117  0.57029600  0.44273515
   0.54674429  0.42994999  0.56869646
Direct configuration=    31
   0.50338047  0.49412028  0.49643532
   0.59616755  0.58295567  0.44529950
   0.38894777  0.48916257  0.57947964
   0.42847632  0.56342316  0.44812532
   0.54580550  0.43507990  0.56991095
Direct configuration=    32
   0.50371580  0.49422607  0.49609721
   0.58906642  0.58215876  0.44484057
   0.38924539  0.49533059  0.57833790
   0.43114176  0.55415492  0.45222591
   0.54591601  0.43770646  0.57147197
Direct configuration=    33
   0.50409135  0.49453762  0.49571287
   0.58030722  0.58030164  0.44733873
   0.39216543  0.50338145  0.57714794
   0.43135932  0.54402735  0.45349543
   0.54702679  0.43789826  0.57351058
Direct configuration=    34
   0.50470895  0.49491546  0.49549167
   0.57042307  0.57764886  0.45254783
   0.39778056  0.51315771  0.57593797
   0.42657014  0.53409723  0.45029235
   0.54866703  0.43616665  0.57537139
Direct configuration=    35
   0.50549079  0.49535056  0.49555859
   0.56048975  0.57509564  0.45971262
   0.40614598  0.52439163  0.57464310
   0.41711823  0.52325153  0.44274789
   0.55029615  0.43310558  0.57624215
Direct configuration=    36
   0.50603232  0.49579064  0.49593145
   0.55239191  0.57480895  0.46731842
   0.41718120  0.53659464  0.57308224
   0.40641995  0.50991791  0.43292748
   0.55155280  0.42923712  0.57553918
Direct configuration=    37
   0.50596774  0.49602323  0.49661200
   0.54805559  0.57958024  0.47361748
   0.43039606  0.54901602  0.57112386
   0.39756941  0.49411946  0.42297213
   0.55230040  0.42504927  0.57297976
Direct configuration=    38
   0.50526164  0.49601729  0.49750218
   0.54744520  0.58903930  0.47801818
   0.44464795  0.56086160  0.56900795
   0.39215787  0.47695099  0.41437474
   0.55255140  0.42098438  0.56860043
Direct configuration=    39
   0.50410710  0.49597599  0.49843553
   0.54917105  0.59963025  0.48065691
   0.45844262  0.57162229  0.56738661
   0.39065112  0.45971010  0.40803503
   0.55240479  0.41736975  0.56271226
Direct configuration=    40
   0.50267861  0.49605508  0.49928874
   0.55224844  0.60848091  0.48147860
   0.47061100  0.58099014  0.56688561
   0.39290799  0.44352436  0.40439283
   0.55205974  0.41438698  0.55578588
Direct configuration=    41
   0.50107349  0.49632620  0.50000728
   0.55618733  0.61423590  0.48031835
   0.48057630  0.58852082  0.56769558
   0.39851269  0.42929204  0.40356697
   0.55182996  0.41207719  0.54833163
Direct configuration=    42
   0.49934922  0.49681963  0.50058531
   0.56064999  0.61640971  0.47709625
   0.48814472  0.59363790  0.56959718
   0.40693388  0.41773543  0.40547694
   0.55208790  0.41041636  0.54079947
Direct configuration=    43
   0.49756361  0.49753364  0.50103778
   0.56526517  0.61486396  0.47188850
   0.49327982  0.59586210  0.57218053
   0.41756235  0.40945509  0.40992036
   0.55315611  0.40944230  0.53354589
Direct configuration=    44
   0.49579643  0.49843377  0.50137701
   0.56957217  0.60958194  0.46492885
   0.49600331  0.59494273  0.57502758
   0.42969148  0.40495399  0.41661660
   0.55522213  0.40933337  0.52688768
Direct configuration=    45
   0.49415303  0.49946167  0.50159529
   0.57302005  0.60063443  0.45660034
   0.49638192  0.59089081  0.57783753
   0.44247806  0.40459219  0.42521574
   0.55834796  0.41034839  0.52118541
Direct configuration=    46
   0.49275357  0.50055835  0.50166262
   0.57501415  0.58825307  0.44744132
   0.49457652  0.58400326  0.58051239
   0.45488974  0.40837345  0.43522585
   0.56255642  0.41266386  0.51685076
Direct configuration=    47
   0.49172270  0.50170510  0.50155324
   0.57503086  0.57297603  0.43811844
   0.49089069  0.57491240  0.58323499
   0.46561651  0.41535654  0.44574394
   0.56788061  0.41627502  0.51424665
Direct configuration=    48
   0.49119153  0.50299391  0.50130395
   0.57280426  0.55582957  0.42929456
   0.48573465  0.56460837  0.58651619
   0.47296738  0.42252430  0.45493131
   0.57429218  0.42107794  0.51359626
Direct configuration=    49
   0.49127977  0.50466560  0.50104088
   0.56850986  0.53838558  0.42136384
   0.47949391  0.55423827  0.59103266
   0.47519521  0.42432759  0.46015645
   0.58153972  0.42700998  0.51494509
Direct configuration=    50
   0.49199537  0.50673482  0.50078666
   0.56276255  0.52243664  0.41421332
   0.47247009  0.54460839  0.59703227
   0.47186356  0.41800353  0.46117385
   0.58904745  0.43405957  0.51813201
Direct configuration=    51
   0.49319554  0.50873721  0.50042441
   0.55619713  0.50929021  0.40738827
   0.46500044  0.53589797  0.60366751
   0.46446112  0.40767217  0.46101725
   0.59606973  0.44219703  0.52282934
Direct configuration=    52
   0.49471873  0.51030452  0.49997083
   0.54896120  0.49935146  0.40063414
   0.45752002  0.52799475  0.60927859
   0.45502214  0.39750357  0.46183858
   0.60192999  0.45138259  0.52859909
Direct configuration=    53
   0.49646205  0.51130420  0.49952246
   0.54076319  0.49242753  0.39413457
   0.45041064  0.52088799  0.61239906
   0.44523762  0.38937435  0.46428712
   0.60608284  0.46153533  0.53491497
Direct configuration=    54
   0.49836967  0.51173310  0.49916182
   0.53125099  0.48815851  0.38835839
   0.44388603  0.51469481  0.61218185
   0.43628076  0.38375282  0.46831954
   0.60816412  0.47246756  0.54120762
Direct configuration=    55
   0.50039324  0.51164238  0.49893380
   0.52029397  0.48622092  0.38387703
   0.43801552  0.50958488  0.60831671
   0.42889403  0.38050267  0.47369248
   0.60807329  0.48385486  0.54691995
Direct configuration=    56
   0.50245833  0.51110067  0.49884470
   0.50808515  0.48637280  0.38124828
   0.43279208  0.50574621  0.60088402
   0.42354353  0.37929836  0.48014573
   0.60605222  0.49525254  0.55159834
Direct configuration=    57
   0.50445069  0.51017542  0.49886179
   0.49512661  0.48843109  0.38091461
   0.42815580  0.50338226  0.59030961
   0.42055031  0.37978962  0.48743771
   0.60271003  0.50618006  0.55500906
Direct configuration=    58
   0.50622799  0.50891924  0.49891212
   0.48215500  0.49223316  0.38308388
   0.42392977  0.50271813  0.57742424
   0.42018296  0.38165090  0.49533653
   0.59892787  0.51626884  0.55722191
Direct configuration=    59
   0.50765896  0.50735728  0.49889465
   0.47002541  0.49760592  0.38760688
   0.41969341  0.50401333  0.56349382
   0.42271953  0.38460124  0.50361305
   0.59556992  0.52541119  0.55856265
Direct configuration=    60
   0.50866806  0.50548334  0.49872479
   0.45956055  0.50434259  0.39390370
   0.41479048  0.50758706  0.54998807
   0.42847742  0.38842831  0.51204023
   0.59305953  0.53378163  0.55938453
Direct configuration=    61
   0.50923585  0.50327580  0.49839823
   0.45138239  0.51219033  0.40100583
   0.40877533  0.51374435  0.53801898
   0.43776777  0.39304996  0.52041224
   0.59114266  0.54166968  0.55980176
Direct configuration=    62
   0.50936213  0.50074388  0.49800468
   0.44578446  0.52083986  0.40777312
   0.40200987  0.52243560  0.52802841
   0.45065604  0.39852710  0.52853077
   0.58910111  0.54926265  0.55963345
Direct configuration=    63
   0.50908204  0.49799918  0.49765799
   0.44273455  0.52987768  0.41324264
   0.39547760  0.53300758  0.52010825
   0.46650494  0.40461386  0.53620967
   0.58619853  0.55653277  0.55856929
Direct configuration=    64
   0.50851112  0.49532126  0.49739470
   0.44204466  0.53870939  0.41691067
   0.39006404  0.54440986  0.51432281
   0.48366826  0.40981181  0.54369267
   0.58199592  0.56326530  0.55636613
Direct configuration=    65
   0.50778498  0.49310939  0.49711608
   0.44355017  0.54658103  0.41875820
   0.38621724  0.55556167  0.51074445
   0.50029501  0.41140515  0.55219086
   0.57643216  0.56921532  0.55294531
Direct configuration=    66
   0.50693282  0.49155002  0.49674607
   0.44708608  0.55276187  0.41902790
   0.38398462  0.56562424  0.50936943
   0.51588926  0.40884755  0.56227870
   0.56976996  0.57425909  0.54840688
Direct configuration=    67
   0.50595951  0.49051220  0.49639234
   0.45238399  0.55671092  0.41796903
   0.38322247  0.57405423  0.51004735
   0.53031117  0.40480312  0.57228606
   0.56250267  0.57838975  0.54302920
Direct configuration=    68
   0.50490049  0.48985681  0.49618288
   0.45909491  0.55807682  0.41568478
   0.38378733  0.58046655  0.51252480
   0.54297447  0.40160319  0.58037293
   0.55528356  0.58168332  0.53726497
Direct configuration=    69
   0.50376989  0.48952539  0.49618285
   0.46690856  0.55664107  0.41208110
   0.38559294  0.58450204  0.51653334
   0.55338291  0.40032699  0.58554964
   0.54883546  0.58434040  0.53168371
Direct configuration=    70
   0.50255134  0.48949927  0.49641994
   0.47564660  0.55229047  0.40695733
   0.38861765  0.58577900  0.52181041
   0.56129402  0.40136318  0.58739828
   0.54379764  0.58669157  0.52683409
Direct configuration=    71
   0.50121917  0.48977372  0.49690664
   0.48524599  0.54501444  0.40027347
   0.39291974  0.58390804  0.52803432
   0.56661777  0.40482718  0.58578126
   0.54057303  0.58907820  0.52306534
Direct configuration=    72
   0.49976481  0.49035650  0.49763461
   0.49561973  0.53490538  0.39250333
   0.39860872  0.57854877  0.53474582
   0.56931291  0.41070641  0.58075848
   0.53928356  0.59166746  0.52040302
Direct configuration=    73
   0.49821844  0.49126547  0.49855491
   0.50646270  0.52220511  0.38479303
   0.40569919  0.56952033  0.54135909
   0.56938431  0.41882663  0.57263635
   0.53985207  0.59435838  0.51856847
Direct configuration=    74
   0.49666308  0.49250733  0.49956268
   0.51712836  0.50744178  0.37864511
   0.41378555  0.55705370  0.54732849
   0.56709408  0.42864186  0.56215528
   0.54207173  0.59685709  0.51712383
Direct configuration=    75
   0.49523275  0.49406227  0.50046681
   0.52671567  0.49147064  0.37529505
   0.42143264  0.54224422  0.55262000
   0.56354993  0.43878888  0.55085122
   0.54556125  0.59881437  0.51562686
Direct configuration=    76
   0.49407741  0.49591984  0.50091958
   0.53431380  0.47527871  0.37529386
   0.42551737  0.52720186  0.55861282
   0.56163642  0.44661108  0.54131832
   0.54966867  0.59991519  0.51372987
Direct configuration=    77
   0.49325463  0.49816235  0.50054480
   0.53923456  0.45971351  0.37853620
   0.42295665  0.51319171  0.56765026
   0.56532564  0.44921053  0.53603639
   0.55350183  0.59995621  0.51123357
Direct configuration=    78
   0.49272306  0.50078713  0.49949855
   0.54110977  0.44538625  0.38460152
   0.41565584  0.49906348  0.57866659
   0.57442987  0.44714498  0.53466221
   0.55620790  0.59895107  0.50809264
Direct configuration=    79
   0.49249797  0.50352022  0.49822448
   0.53986500  0.43277247  0.39308393
   0.40777174  0.48445375  0.58840818
   0.58517203  0.44332697  0.53545019
   0.55729815  0.59716542  0.50438342
Direct configuration=    80
   0.49257133  0.50604582  0.49697702
   0.53567611  0.42231547  0.40364527
   0.40177436  0.47017063  0.59506488
   0.59496171  0.43976053  0.53731423
   0.55681358  0.59513699  0.50028468
Direct configuration=    81
   0.49287351  0.50810363  0.49585197
   0.52892054  0.41442432  0.41587512
   0.39858818  0.45715477  0.59822939
   0.60277017  0.43737098  0.53971006
   0.55531744  0.59371719  0.49600739
Direct configuration=    82
   0.49330317  0.50949336  0.49489685
   0.52011949  0.40937461  0.42914865
   0.39836752  0.44614941  0.59812920
   0.60831346  0.43653733  0.54233994
   0.55363510  0.59391390  0.49167613
Direct configuration=    83
   0.49377982  0.51010529  0.49416929
   0.50990314  0.40713213  0.44254595
   0.40094417  0.43772628  0.59520721
   0.61155320  0.43742508  0.54501162
   0.55231009  0.59634189  0.48726788
Direct configuration=    84
   0.49428858  0.50996899  0.49374707
   0.49896974  0.40712161  0.45484742
   0.40599438  0.43236404  0.59000630
   0.61249256  0.44012733  0.54755168
   0.55114323  0.60064952  0.48269857
Direct configuration=    85
   0.49488064  0.50924455  0.49370980
   0.48795107  0.40809967  0.46466600
   0.41307875  0.43049921  0.58318087
   0.61110294  0.44469940  0.54974008
   0.54935594  0.60566536  0.47796469
Direct configuration=    86
   0.49564788  0.50813496  0.49411160
   0.47721165  0.40852341  0.47073421
   0.42163274  0.43253549  0.57554981
   0.60731882  0.45113727  0.55127444
   0.54611013  0.61009486  0.47316709
Direct configuration=    87
   0.49669096  0.50678043  0.49495538
   0.46688696  0.40749796  0.47214337
   0.43089366  0.43875954  0.56821728
   0.60114389  0.45930417  0.55179866
   0.54082035  0.61299855  0.46843167
Direct configuration=    88
   0.49807495  0.50525021  0.49615332
   0.45719755  0.40533420  0.46849010
   0.43970703  0.44897396  0.56279952
   0.59298426  0.46877615  0.55107654
   0.53323293  0.61385537  0.46383636
Direct configuration=    89
   0.49980473  0.50366854  0.49742043
   0.44859624  0.40319717  0.46040929
   0.44595832  0.46165615  0.56171356
   0.58436375  0.47862199  0.54940441
   0.52342707  0.61246182  0.45945599
Direct configuration=    90
   0.50176476  0.50224173  0.49820315
   0.44182799  0.40246333  0.44966417
   0.44625510  0.47431384  0.56820418
   0.57893183  0.48738060  0.54830362
   0.51178860  0.60891681  0.45541001
Direct configuration=    91
   0.50345093  0.50092702  0.49818422
   0.43761622  0.40405981  0.43823692
   0.44055518  0.48716745  0.58154503
   0.58142960  0.49399113  0.55032214
   0.49894984  0.60364715  0.45170531
Direct configuration=    92
   0.50447787  0.49954012  0.49771490
   0.43633320  0.40823431  0.42770556
   0.43292681  0.50102508  0.59635199
   0.59131482  0.49895298  0.55519703
   0.48564148  0.59731123  0.44819175
Direct configuration=    93
   0.50497067  0.49806236  0.49724324
   0.43801455  0.41467925  0.41917692
   0.42607686  0.51509315  0.60915572
   0.60363588  0.50292795  0.55998915
   0.47256998  0.59057270  0.44478962
Direct configuration=    94
   0.50510759  0.49657863  0.49695938
   0.44246738  0.42266494  0.41333651
   0.42095524  0.52837489  0.61880680
   0.61481109  0.50611569  0.56272311
   0.46041907  0.58393853  0.44165445
Direct configuration=    95
   0.50499679  0.49519209  0.49688599
   0.44932840  0.43115648  0.41044741
   0.41769420  0.54019351  0.62520263
   0.62313358  0.50858659  0.56262783
   0.44982740  0.57781118  0.43912446
Direct configuration=    96
   0.50471404  0.49400060  0.49701737
   0.45804086  0.43889918  0.41023010
   0.41618021  0.55013145  0.62852436
   0.62788723  0.51042492  0.55952642
   0.44127133  0.57260328  0.43754346
Direct configuration=    97
   0.50434632  0.49310455  0.49740040
   0.46778185  0.44445956  0.41161959
   0.41626929  0.55790021  0.62897411
   0.62877068  0.51175017  0.55350225
   0.43497458  0.56871129  0.43712782
Direct configuration=    98
   0.50399057  0.49261740  0.49815166
   0.47756425  0.44634750  0.41271841
   0.41785026  0.56324957  0.62672691
   0.62567872  0.51270673  0.54481233
   0.43097603  0.56636857  0.43794278
Direct configuration=    99
   0.50368879  0.49262978  0.49936208
   0.48674674  0.44360356  0.41187157
   0.42087081  0.56591158  0.62193824
   0.61879133  0.51348615  0.53393820
   0.42928511  0.56552238  0.43991409
Direct configuration=   100
   0.50336160  0.49312814  0.50093378
   0.49528390  0.43665927  0.40953848
   0.42536662  0.56557514  0.61474598
   0.60903892  0.51443508  0.52169887
   0.42993434  0.56586841  0.44280109
Direct configuration=   101
   0.50279841  0.49398496  0.50262792
   0.50309052  0.42708373  0.40778651
   0.43147422  0.56189164  0.60528939
   0.59897983  0.51625649  0.50921536
   0.43284374  0.56701480  0.44614481
Direct configuration=   102
   0.50168237  0.49501196  0.50426791
   0.50978125  0.41653346  0.40835719
   0.43933228  0.55458244  0.59388053
   0.59308380  0.52013239  0.49726562
   0.43759567  0.56866305  0.44923483
Direct configuration=   103
   0.49994710  0.49602437  0.50578179
   0.51494585  0.40629002  0.41211633
   0.44859153  0.54390063  0.58171520
   0.59379185  0.52680397  0.48558084
   0.44330609  0.57075662  0.45114252
Direct configuration=   104
   0.49815403  0.49683763  0.50684863
   0.51831820  0.39733929  0.41935008
   0.45696011  0.53195328  0.57305043
   0.59803596  0.53523472  0.47438911
   0.44885764  0.57345590  0.45095153
Direct configuration=   105
   0.49716205  0.49709015  0.50651923
   0.51980256  0.39048309  0.42999665
   0.45848510  0.52387607  0.57855094
   0.60236146  0.54387531  0.46479826
   0.45343745  0.57671579  0.44835169
Direct configuration=   106
   0.49702343  0.49695769  0.50472801
   0.51947987  0.38632052  0.44360344
   0.45426186  0.51857180  0.59802414
   0.60531595  0.55169951  0.45761911
   0.45669391  0.57994941  0.44396517
Direct configuration=   107
   0.49725052  0.49681314  0.50244282
   0.51758759  0.38510286  0.45929639
   0.45033502  0.51275640  0.61944713
   0.60659444  0.55809817  0.45315448
   0.45850692  0.58231991  0.43876133
Direct configuration=   108
   0.49766745  0.49678079  0.50010402
   0.51449523  0.38649824  0.47592137
   0.44843234  0.50642217  0.63778140
   0.60625216  0.56266817  0.45144408
   0.45883657  0.58307742  0.43360376
Direct configuration=   109
   0.49822959  0.49696757  0.49785669
   0.51067102  0.38940276  0.49229094
   0.44853534  0.50018388  0.65194478
   0.60440752  0.56510098  0.45242120
   0.45765051  0.58173491  0.42908641
Direct configuration=   110
   0.49892867  0.49749585  0.49573355
   0.50654269  0.39226345  0.50760761
   0.45023916  0.49454627  0.66212676
   0.60119493  0.56516636  0.45597325
   0.45489096  0.57810128  0.42553673
Direct configuration=   111
   0.49976867  0.49840543  0.49372546
   0.50232893  0.39420083  0.52160765
   0.45313154  0.48985714  0.66879202
   0.59684980  0.56280630  0.46191323
   0.45046819  0.57228817  0.42305059
Direct configuration=   112
   0.50073114  0.49957541  0.49184943
   0.49809901  0.39569446  0.53407285
   0.45685891  0.48635098  0.67242167
   0.59195596  0.55837087  0.46987354
   0.44430443  0.56468342  0.42152838
Direct configuration=   113
   0.50170756  0.50076971  0.49017832
   0.49396946  0.39778993  0.54453047
   0.46113243  0.48417455  0.67343466
   0.58792474  0.55297585  0.47921360
   0.43646389  0.55581473  0.42078946
Direct configuration=   114
   0.50245595  0.50172454  0.48878706
   0.49014483  0.40116377  0.55250965
   0.46572085  0.48339805  0.67213991
   0.58726537  0.54857206  0.48924174
   0.42737050  0.54615272  0.42078738
Direct configuration=   115
   0.50275728  0.50228384  0.48767875
   0.48683130  0.40586063  0.55780948
   0.47042661  0.48403071  0.66872046
   0.59172777  0.54660274  0.49974993
   0.41789662  0.53607477  0.42171066
Direct configuration=   116
   0.50268796  0.50250709  0.48683579
   0.48417850  0.41140783  0.56053918
   0.47505821  0.48606223  0.66326780
   0.59939834  0.54643211  0.51049957
   0.40907989  0.52598519  0.42380881
Direct configuration=   117
   0.50246142  0.50252931  0.48629084
   0.48228666  0.41697477  0.56103607
   0.47941184  0.48952236  0.65584431
   0.60695583  0.54676820  0.52057409
   0.40178156  0.51635509  0.42720626
Direct configuration=   118
   0.50221949  0.50245211  0.48608485
   0.48121428  0.42147077  0.55979068
   0.48327966  0.49452391  0.64651215
   0.61230206  0.54687948  0.52899122
   0.39654570  0.50767350  0.43184083
Direct configuration=   119
   0.50202773  0.50234869  0.48624260
   0.48096748  0.42365295  0.55739384
   0.48646336  0.50124666  0.63529956
   0.61460086  0.54650520  0.53506609
   0.39361318  0.50038508  0.43748067
Direct configuration=   120
   0.50191412  0.50227400  0.48678925
   0.48154573  0.42240882  0.55439900
   0.48876627  0.50985161  0.62217747
   0.61372717  0.54558188  0.53835466
   0.39297034  0.49484463  0.44374316
Direct configuration=   121
   0.50188703  0.50224824  0.48776477
   0.48306243  0.41727208  0.55106697
   0.48993647  0.52034035  0.60726485
   0.60997450  0.54410156  0.53853769
   0.39436148  0.49128235  0.45008778
Direct configuration=   122
   0.50194364  0.50222607  0.48917609
   0.48577809  0.40888855  0.54725412
   0.48956546  0.53252912  0.59153713
   0.60406071  0.54208434  0.53539684
   0.39725070  0.48976072  0.45581785
Direct configuration=   123
   0.50208016  0.50206537  0.49087939
   0.48986857  0.39891309  0.54273971
   0.48700396  0.54650930  0.57774244
   0.59735655  0.53965838  0.52893982
   0.40078607  0.49011207  0.46012568
Direct configuration=   124
   0.50226374  0.50152220  0.49262596
   0.49517293  0.38936375  0.53765218
   0.48160562  0.56314436  0.56912790
   0.59215856  0.53727944  0.51963137
   0.40387314  0.49192930  0.46215820
Direct configuration=   125
   0.50232465  0.50047595  0.49443873
   0.50125337  0.38183676  0.53245086
   0.47384016  0.58178334  0.56499468
   0.59146844  0.53594324  0.50821625
   0.40551671  0.49472001  0.46113462
Direct configuration=   126
   0.50207922  0.49906138  0.49652970
   0.50764179  0.37718679  0.52759777
   0.46529836  0.59961025  0.56273168
   0.59660182  0.53635404  0.49469451
   0.40548448  0.49812268  0.45665784
Direct configuration=   127
   0.50162395  0.49751280  0.49896720
   0.51393626  0.37575505  0.52339809
   0.45732075  0.61457534  0.56104849
   0.60457687  0.53766801  0.47885581
   0.40466084  0.50187533  0.44910256
Direct configuration=   128
   0.50113224  0.49603290  0.50158478
   0.51977250  0.37753213  0.52006085
   0.45063682  0.62585636  0.55955359
   0.61148409  0.53863425  0.46173313
   0.40450723  0.50562605  0.43961759
Direct configuration=   129
   0.50067265  0.49476475  0.50412521
   0.52485812  0.38208975  0.51778230
   0.44557800  0.63324309  0.55815118
   0.61529402  0.53862816  0.44486763
   0.40619060  0.50891963  0.42965104
Direct configuration=   130
   0.50023544  0.49383900  0.50636517
   0.52909161  0.38843331  0.51676837
   0.44230920  0.63669941  0.55681088
   0.61553596  0.53754554  0.42947942
   0.41023541  0.51132149  0.42048924
Direct configuration=   131
   0.49977003  0.49341220  0.50814818
   0.53270373  0.39492461  0.51721761
   0.44095854  0.63618344  0.55550079
   0.61246828  0.53551912  0.41634043
   0.41663162  0.51249887  0.41307332
Direct configuration=   132
   0.49920399  0.49365464  0.50937734
   0.53627806  0.39962620  0.51929185
   0.44167062  0.63159657  0.55416994
   0.60659109  0.53275947  0.40591121
   0.42502109  0.51223189  0.40799573
Direct configuration=   133
   0.49848281  0.49465768  0.51000801
   0.54035183  0.40145587  0.52306165
   0.44461435  0.62280197  0.55274230
   0.59846498  0.52950691  0.39847683
   0.43479176  0.51040186  0.40551296
Direct configuration=   134
   0.49762982  0.49633949  0.51005619
   0.54479079  0.40118224  0.52838296
   0.44992386  0.60976719  0.55113506
   0.58868054  0.52603415  0.39422592
   0.44507305  0.50698280  0.40547114
Direct configuration=   135
   0.49676368  0.49846016  0.50960261
   0.54885153  0.40065976  0.53482463
   0.45743660  0.59315062  0.54942209
   0.57788825  0.52266188  0.39328058
   0.45469502  0.50202281  0.40713572
Direct configuration=   136
   0.49610638  0.50058847  0.50872994
   0.55176927  0.40149851  0.54177921
   0.46591231  0.57609444  0.54857613
   0.56690646  0.51977854  0.39567753
   0.46217827  0.49556043  0.40911187
Direct configuration=   137
   0.49603540  0.50187501  0.50727937
   0.55312030  0.40454119  0.54861823
   0.47170926  0.56757952  0.55281902