CH4 AIMD Simulation                     
           1
    10.000000    0.000000    0.000000
     0.000000   10.000000    0.000000
     0.000000    0.000000   10.000000
   C    H 
     2     4
Direct configuration=     1
   0.50000000  0.50000000  0.51000000
   0.63000000  0.50000000  0.51000000
   0.44000000  0.58000000  0.51000000
   0.44000000  0.42000000  0.51000000
   0.69000000  0.58000000  0.51000000
   0.69000000  0.42000000  0.51000000
Direct configuration=     2
   0.50076505  0.50065361  0.51019829
   0.62985315  0.49954283  0.51040500
   0.44193032  0.58382246  0.50537040
   0.43486844  0.41551344  0.50893690
   0.68713154  0.58422718  0.50569438
   0.68864455  0.41407750  0.51275216
Direct configuration=     3
   0.50141651  0.50116104  0.51039003
   0.62973113  0.49903776  0.51081123
   0.44263884  0.59047075  0.50064983
   0.42984391  0.41001916  0.50800790
   0.68554637  0.59098068  0.50133955
   0.68818655  0.40614160  0.51557433
Direct configuration=     4
   0.50171012  0.50152841  0.51055264
   0.62983833  0.49848171  0.51121354
   0.44320236  0.59797770  0.49595037
   0.42618478  0.40546181  0.50733820
   0.68434076  0.59813089  0.49708539
   0.68767366  0.39830804  0.51841244
Direct configuration=     5
   0.50151727  0.50181554  0.51065676
   0.63028335  0.49789228  0.51160219
   0.44441927  0.60459748  0.49151451
   0.42448177  0.40289455  0.50701054
   0.68291305  0.60389437  0.49318950
   0.68655866  0.39212298  0.52115313
Direct configuration=     6
   0.50083058  0.50207467  0.51067739
   0.63106302  0.49728834  0.51196802
   0.44663052  0.60922228  0.48758109
   0.42489253  0.40279043  0.50706786
   0.68105998  0.60718683  0.48989181
   0.68467299  0.38845126  0.52368516
Direct configuration=     7
   0.49973311  0.50234183  0.51059805
   0.63209295  0.49668762  0.51230423
   0.44984557  0.61129370  0.48432550
   0.42728225  0.40523419  0.50752411
   0.67884237  0.60749583  0.48736601
   0.68209702  0.38763348  0.52592510
Direct configuration=     8
   0.49837051  0.50264994  0.51041163
   0.63324073  0.49611002  0.51260620
   0.45386091  0.61067008  0.48184407
   0.43121151  0.40990634  0.50837020
   0.67648499  0.60473772  0.48570694
   0.67908995  0.38958001  0.52783161
Direct configuration=     9
   0.49693931  0.50304975  0.51012170
   0.63434846  0.49558069  0.51287146
   0.45830854  0.60761215  0.48012989
   0.43579192  0.41586105  0.50958041
   0.67434804  0.59925678  0.48490495
   0.67608406  0.39371985  0.52943393
Direct configuration=    10
   0.49568576  0.50362471  0.50974463
   0.63524214  0.49512792  0.51310114
   0.46265700  0.60291055  0.47901273
   0.43953480  0.42123718  0.51114266
   0.67295665  0.59198770  0.48477874
   0.67370660  0.39884669  0.53088531
Direct configuration=    11
   0.49487380  0.50444785  0.50931152
   0.63573617  0.49476598  0.51330422
   0.46621006  0.59807909  0.47806705
   0.44066015  0.42359829  0.51312555
   0.67305829  0.58466695  0.48487587
   0.67274515  0.40309839  0.53251386
Direct configuration=    12
   0.49466599  0.50542410  0.50887198
   0.63566104  0.49445779  0.51350355
   0.46819201  0.59527430  0.47658225
   0.43843052  0.42190717  0.51565998
   0.67557269  0.57959674  0.48448612
   0.67387688  0.40464045  0.53473923
Direct configuration=    13
   0.49503101  0.50627609  0.50848451
   0.63495149  0.49412206  0.51372565
   0.46806965  0.59617557  0.47390137
   0.43393996  0.41781313  0.51871203
   0.68106383  0.57815335  0.48309594
   0.67713680  0.40307576  0.53774441
Direct configuration=    14
   0.49580882  0.50684264  0.50816361
   0.63373252  0.49372833  0.51396858
   0.46599051  0.60031224  0.47010071
   0.42887162  0.41374536  0.52203558
   0.68891393  0.57932652  0.48098531
   0.68173297  0.39975787  0.54126864
Direct configuration=    15
   0.49680062  0.50716796  0.50786782
   0.63225932  0.49330292  0.51420843
   0.46269415  0.60554814  0.46596241
   0.42448885  0.41134960  0.52534428
   0.69758054  0.58095756  0.47891604
   0.68652753  0.39648899  0.54483945
Direct configuration=    16
   0.49781992  0.50735765  0.50754718
   0.63079469  0.49286862  0.51442867
   0.45901576  0.60987885  0.46230623
   0.42153261  0.41141117  0.52840942
   0.70555911  0.58144864  0.47750091
   0.69053247  0.39454356  0.54805151
Direct configuration=    17
   0.49871041  0.50749696  0.50716930
   0.62955265  0.49243098  0.51462637
   0.45561320  0.61211403  0.45966268
   0.42036977  0.41415514  0.53107418
   0.71180574  0.58005468  0.47704127
   0.69307370  0.39454175  0.55065412
Direct configuration=    18
   0.49935417  0.50764490  0.50671873
   0.62868906  0.49198852  0.51480607
   0.45293632  0.61174740  0.45828246
   0.42108755  0.41943794  0.53325417
   0.71570931  0.57660251  0.47760761
   0.69376962  0.39661518  0.55254142
Direct configuration=    19
   0.49968705  0.50784950  0.50618970
   0.62829685  0.49154415  0.51497292
   0.45126168  0.60874283  0.45820509
   0.42347343  0.42676361  0.53496561
   0.71698276  0.57125797  0.47912020
   0.69249751  0.40051842  0.55374489
Direct configuration=    20
   0.49972546  0.50816261  0.50557871
   0.62838979  0.49111431  0.51512678
   0.45069686  0.60346713  0.45927275
   0.42686966  0.43515532  0.53641396
   0.71564637  0.56445783  0.48136529
   0.68942484  0.40560453  0.55447438
Direct configuration=    21
   0.49959351  0.50864164  0.50487893
   0.62887635  0.49073363  0.51525741
   0.45110860  0.59679452  0.46106170
   0.42999144  0.44302124  0.53814075
   0.71217103  0.55699145  0.48394259
   0.68510742  0.41069653  0.55521738
Direct configuration=    22
   0.49950990  0.50930780  0.50408904
   0.62953967  0.49044245  0.51534610
   0.45196716  0.59030645  0.46275695
   0.43114573  0.44846798  0.54103914
   0.70778942  0.55017021  0.48616349
   0.68051333  0.41405513  0.55682500
Direct configuration=    23
   0.49967093  0.51004993  0.50326125
   0.63007607  0.49023269  0.51539000
   0.45226022  0.58622933  0.46314523
   0.42948036  0.45054657  0.54576449
   0.70469217  0.54583774  0.48701697
   0.67660608  0.41399180  0.56027311
Direct configuration=    24
   0.50009951  0.51065213  0.50251901
   0.63026774  0.48999859  0.51543879
   0.45101594  0.58630376  0.46118552
   0.42598517  0.45008793  0.55192035
   0.70506537  0.54550775  0.48558336
   0.67352244  0.41028475  0.56583963
Direct configuration=    25
   0.50063188  0.51102855  0.50194378
   0.63018236  0.48964406  0.51555439
   0.44843142  0.59004053  0.45700919
   0.42239467  0.44864474  0.55839834
   0.70878687  0.54870788  0.48196082
   0.67060714  0.40452808  0.57268113
Direct configuration=    26
   0.50104158  0.51126129  0.50152617
   0.63006919  0.48916806  0.51575497
   0.44571306  0.59530273  0.45174190
   0.41998953  0.44742962  0.56415936
   0.71369215  0.55337344  0.47721833
   0.66726386  0.39873735  0.57953671
Direct configuration=    27
   0.50116943  0.51145814  0.50122766
   0.63012229  0.48860256  0.51603457
   0.44395881  0.60013640  0.44652362
   0.41941426  0.44714576  0.56850410
   0.71781480  0.55762607  0.47245988
   0.66329729  0.39436278  0.58539574
Direct configuration=    28
   0.50095618  0.51168871  0.50101803
   0.63041655  0.48797638  0.51638190
   0.44375913  0.60336584  0.44211366
   0.42085644  0.44812771  0.57104264
   0.72008925  0.56033815  0.46843112
   0.65880730  0.39219088  0.58964200
Direct configuration=    29
   0.50042413  0.51198829  0.50087704
   0.63093750  0.48731617  0.51678166
   0.44530195  0.60442981  0.43893510
   0.42418555  0.45045462  0.57163675
   0.72011044  0.56094846  0.46556453
   0.65404752  0.39252116  0.59198503
Direct configuration=    30
   0.49965833  0.51237543  0.50078385
   0.63161577  0.48665361  0.51721118
   0.44851474  0.60317096  0.43717060
   0.42896530  0.45396230  0.57042324
   0.71786392  0.55923981  0.46408361
   0.64935277  0.39528920  0.59240431
Direct configuration=    31
   0.49880035  0.51286689  0.50070276
   0.63234698  0.48603097  0.51763614
   0.45311899  0.59976831  0.43677967
   0.43435593  0.45815605  0.56794963
   0.71362943  0.55525705  0.46403586
   0.64511508  0.40005640  0.59118630
Direct configuration=    32
   0.49804908  0.51348223  0.50057397
   0.63299743  0.48550280  0.51800782
   0.45860487  0.59482805  0.43740343
   0.43900678  0.46209497  0.56535807
   0.70806102  0.54938171  0.46521140
   0.64175774  0.40588605  0.58906121
Direct configuration=    33
   0.49763833  0.51421782  0.50033925
   0.63339840  0.48512469  0.51827119
   0.46418579  0.58956987  0.43817136
   0.44127967  0.46453966  0.56424996
   0.70240911  0.54253732  0.46692887
   0.63967328  0.41125023  0.58733987
Direct configuration=    34
   0.49774516  0.51497624  0.50003804
   0.63334374  0.48491075  0.51840607
   0.46887253  0.58583302  0.43760282
   0.44022632  0.46480414  0.56562130
   0.69870010  0.53632543  0.46780660
   0.63912223  0.41439471  0.58765710
Direct configuration=    35
   0.49838035  0.51557500  0.49984270
   0.63265358  0.48479071  0.51848204
   0.47190306  0.58519232  0.43425851
   0.43644079  0.46354191  0.56878499
   0.69907028  0.53236874  0.46619364
   0.64016739  0.41450456  0.59088451
Direct configuration=    36
   0.49939451  0.51593408  0.49986869
   0.63135460  0.48468525  0.51858941
   0.47330891  0.58739880  0.42822400
   0.43135881  0.46206499  0.57216353
   0.70367606  0.53066302  0.46187325
   0.64265863  0.41243441  0.59625897
Direct configuration=    37
   0.50057292  0.51612859  0.50007448
   0.62971232  0.48456946  0.51874500
   0.47371516  0.59068150  0.42113314
   0.42628113  0.46141164  0.57447612
   0.71034861  0.52973159  0.45643391
   0.64622908  0.40979103  0.60213617
Direct configuration=    38
   0.50171110  0.51626968  0.50036064
   0.62804110  0.48441844  0.51894353
   0.47374519  0.59337477  0.41470197
   0.42209170  0.46213980  0.57502854
   0.71675959  0.52833890  0.45154921
   0.65037983  0.40788154  0.60707795
Direct configuration=    39
   0.50263807  0.51644314  0.50064031
   0.62659917  0.48419303  0.51919138
   0.47381268  0.59451611  0.41003332
   0.41930636  0.46444658  0.57358070
   0.72143577  0.52594835  0.44819992
   0.65460680  0.40744792  0.61020761
Direct configuration=    40
   0.50322578  0.51670749  0.50084872
   0.62557458  0.48385509  0.51949981
   0.47415232  0.59370578  0.40766567
   0.41814253  0.46829004  0.57020641
   0.72363513  0.52246306  0.44680757
   0.65847899  0.40878406  0.61113416
Direct configuration=    41
   0.50340887  0.51710154  0.50093523
   0.62508243  0.48338101  0.51987314
   0.47487818  0.59090504  0.40773775
   0.41850626  0.47343141  0.56525781
   0.72306816  0.51799949  0.44746079
   0.66166841  0.41186818  0.60983439
Direct configuration=    42
   0.50321237  0.51764707  0.50085714
   0.62515337  0.48277159  0.52030003
   0.47600787  0.58636670  0.41002793
   0.41986859  0.47940817  0.55942844
   0.71977229  0.51279959  0.45000410
   0.66398030  0.41639701  0.60664070
Direct configuration=    43
   0.50277408  0.51834294  0.50058494
   0.62571441  0.48205912  0.52074915
   0.47744370  0.58070355  0.41381797
   0.42109007  0.48550584  0.55383646
   0.71419256  0.50723979  0.45395877
   0.66542848  0.42172165  0.60236302
Direct configuration=    44
   0.50232753  0.51914362  0.50013637
   0.62656655  0.48130778  0.52117633
   0.47891737  0.57503170  0.41761620
   0.42053275  0.49090122  0.54987561
   0.70747717  0.50188424  0.45827151
   0.66635597  0.42676114  0.59846994
Direct configuration=    45
   0.50209358  0.51993096  0.49963887
   0.62738276  0.48059323  0.52156207
   0.47997420  0.57092080  0.41908228
   0.41706067  0.49512941  0.54850427
   0.70180925  0.49748904  0.46102049
   0.66744551  0.43016480  0.59696853
Direct configuration=    46
   0.50212761  0.52056511  0.49929134
   0.62782428  0.47995345  0.52196905
   0.48023761  0.56954699  0.41616949
   0.41126503  0.49841428  0.54952112
   0.69981689  0.49471814  0.45984823
   0.66925828  0.43109214  0.59932268
Direct configuration=    47
   0.50230488  0.52102288  0.49915051
   0.62782748  0.47936822  0.52247547
   0.47989641  0.57047066  0.40928797
   0.40494999  0.50129963  0.55193184
   0.70200250  0.49352989  0.45419315
   0.67156142  0.43000224  0.60505735
Direct configuration=    48
   0.50245153  0.52138612  0.49910411
   0.62763024  0.47879928  0.52305862
   0.47952934  0.57221146  0.40085381
   0.39981446  0.50419751  0.55473464
   0.70612101  0.49323961  0.44616831
   0.67355302  0.42812462  0.61226669
Direct configuration=    49
   0.50245115  0.52173490  0.49902682
   0.62747265  0.47821719  0.52366180
   0.47958048  0.57355469  0.39313776
   0.39692557  0.50729929  0.55722865
   0.70986979  0.49319877  0.43825387
   0.67453939  0.42652262  0.61908672
Direct configuration=    50
   0.50226304  0.52211229  0.49884459
   0.62747299  0.47761041  0.52424668
   0.48023785  0.57385615  0.38752514
   0.39677331  0.51064554  0.55900214
   0.71199147  0.49301129  0.43205689
   0.67416797  0.42581759  0.62428667
Direct configuration=    51
   0.50190639  0.52253225  0.49852497
   0.62765348  0.47698466  0.52478852
   0.48151761  0.57286636  0.38469330
   0.39940597  0.51419401  0.55987547
   0.71199925  0.49246194  0.42841376
   0.67236351  0.42628009  0.62721919
Direct configuration=    52
   0.50144813  0.52299100  0.49805596
   0.62798029  0.47635938  0.52526336
   0.48333946  0.57056622  0.38486068
   0.40446670  0.51785880  0.55989924
   0.70981864  0.49143287  0.42769843
   0.66924042  0.42794466  0.62767320
Direct configuration=    53
   0.50100129  0.52347173  0.49743200
   0.62838508  0.47576563  0.52563954
   0.48555480  0.56710818  0.38786174
   0.41111517  0.52153738  0.55943411
   0.70562806  0.48986178  0.42997551
   0.66507227  0.43065276  0.62583632
Direct configuration=    54
   0.50072569  0.52394064  0.49665468
   0.62876741  0.47524605  0.52587416
   0.48794012  0.56285113  0.39301032
   0.41795614  0.52515354  0.55926386
   0.69988656  0.48773803  0.43494715
   0.66030557  0.43402599  0.62240478
Direct configuration=    55
   0.50080025  0.52433656  0.49576687
   0.62898372  0.47485337  0.52592366
   0.49017413  0.55845390  0.39876674
   0.42332112  0.52871903  0.56049913
   0.69353510  0.48513123  0.44166452
   0.65556443  0.43742560  0.61876469
Direct configuration=    56
   0.50133967  0.52457062  0.49492827
   0.62883638  0.47463725  0.52579299
   0.49183770  0.55490121  0.40249930
   0.42621175  0.53233983  0.56388680
   0.68830922  0.48222130  0.44806815
   0.65152682  0.44005199  0.61688261
Direct configuration=    57
   0.50231948  0.52457357  0.49439783
   0.62810918  0.47461500  0.52561425
   0.49252372  0.55309436  0.40149044
   0.42705585  0.53607420  0.56898954
   0.68666147  0.47920895  0.45107896
   0.64861028  0.44136863  0.61829590
Direct configuration=    58
   0.50360176  0.52437776  0.49427486
   0.62674317  0.47475822  0.52555192
   0.49210217  0.55299945  0.39569684
   0.42707722  0.53982340  0.57450616
   0.68992319  0.47602015  0.44909414
   0.64675454  0.44153484  0.62278334
Direct configuration=    59
   0.50500112  0.52410361  0.49441415
   0.62498129  0.47500106  0.52559111
   0.49080702  0.55376281  0.38787875
   0.42735720  0.54339481  0.57916344
   0.69643659  0.47240621  0.44423395
   0.64561042  0.44118995  0.62866075
Direct configuration=    60
   0.50633053  0.52387770  0.49462649
   0.62317503  0.47524697  0.52566361
   0.48901138  0.55458628  0.38081092
   0.42853673  0.54659814  0.58211948
   0.70357320  0.46837002  0.43947498
   0.64481741  0.44095907  0.63411022
Direct configuration=    61
   0.50742314  0.52380058  0.49477628
   0.62161430  0.47539519  0.52575926
   0.48705010  0.55501318  0.37614378
   0.43086829  0.54929633  0.58296771
   0.70952800  0.46410872  0.43657585
   0.64411483  0.44124140  0.63788027
Direct configuration=    62
   0.50815006  0.52394410  0.49477463
   0.62050272  0.47536179  0.52590223
   0.48517370  0.55483972  0.37462322
   0.43429932  0.55143001  0.58166197
   0.71335741  0.45984662  0.43625084
   0.64335104  0.44222069  0.63933421
Direct configuration=    63
   0.50844639  0.52434617  0.49455851
   0.61995948  0.47509175  0.52611293
   0.48355413  0.55400998  0.37643672
   0.43849142  0.55304433  0.57850708
   0.71463286  0.45577453  0.43866453
   0.64246866  0.44392228  0.63832698
Direct configuration=    64
   0.50833820  0.52499946  0.49408018
   0.62001434  0.47456823  0.52638315
   0.48228392  0.55257431  0.38134062
   0.44278079  0.55433566  0.57423565
   0.71322446  0.45203898  0.44369428
   0.64149854  0.44624351  0.63516443
Direct configuration=    65
   0.50795283  0.52584167  0.49331620
   0.62060178  0.47381860  0.52666445
   0.48133083  0.55071152  0.38851554
   0.44617130  0.55569225  0.57006740
   0.70929166  0.44872325  0.45095209
   0.64056680  0.44895338  0.63069744
Direct configuration=    66
   0.50749160  0.52676105  0.49231883
   0.62155782  0.47291581  0.52687655
   0.48041563  0.54880180  0.39616900
   0.44759823  0.55761651  0.56744306
   0.70350873  0.44576255  0.45959465
   0.63989475  0.45170045  0.62645764
Direct configuration=    67
   0.50715939  0.52763132  0.49130374
   0.62261492  0.47197583  0.52696182
   0.47885213  0.54746441  0.40124195
   0.44659946  0.56040550  0.56718183
   0.69752946  0.44272845  0.46796933
   0.63972975  0.45412011  0.62443925
Direct configuration=    68
   0.50708117  0.52837409  0.49058825
   0.62342189  0.47114841  0.52699222
   0.47577816  0.54724849  0.40069391
   0.44375402  0.56386592  0.56883351
   0.69425939  0.43854256  0.47351016
   0.64016619  0.45607834  0.62602342
Direct configuration=    69
   0.50723073  0.52901087  0.49026430
   0.62372561  0.47055418  0.52714259
   0.47124132  0.54795645  0.39483851
   0.44021531  0.56749055  0.57118971
   0.69602441  0.43200313  0.47433652
   0.64103242  0.45777404  0.63078115
Direct configuration=    70
   0.50746821  0.52962133  0.49016829
   0.62363216  0.47015248  0.52745584
   0.46635098  0.54885529  0.38688382
   0.43704993  0.57078754  0.57310644
   0.70135375  0.42357965  0.47161620
   0.64202885  0.45949434  0.63693005
Direct configuration=    71
   0.50766502  0.53026644  0.49013215
   0.62340215  0.46980397  0.52788067
   0.46219381  0.54938212  0.37965351
   0.43498125  0.57342304  0.57383253
   0.70710596  0.41495233  0.46776226
   0.64290119  0.46139691  0.64261973
Direct configuration=    72
   0.50775368  0.53096963  0.49006047
   0.62320185  0.46940795  0.52838500
   0.45940999  0.54927585  0.37469852
   0.43438808  0.57523268  0.57301445
   0.71122790  0.40746029  0.46438999
   0.64349715  0.46349602  0.64656847
Direct configuration=    73
   0.50772230  0.53172443  0.48990467
   0.62309245  0.46892303  0.52895312
   0.45829355  0.54845960  0.37269348
   0.43535595  0.57620657  0.57063326
   0.71281040  0.40183365  0.46228963
   0.64375408  0.46572348  0.64810269
Direct configuration=    74
   0.50760293  0.53250109  0.48963232
   0.62307490  0.46834510  0.52956414
   0.45893285  0.54694685  0.37381769
   0.43768557  0.57649998  0.56699049
   0.71156013  0.39841311  0.46180083
   0.64368003  0.46797643  0.64704225
Direct configuration=    75
   0.50746825  0.53324719  0.48921173
   0.62311798  0.46768980  0.53017842
   0.46126415  0.54480234  0.37788603
   0.44085453  0.57647453  0.56275192
   0.70748844  0.39732169  0.46303171
   0.64335164  0.47014726  0.64365515
Direct configuration=    76
   0.50743255  0.53388769  0.48862081
   0.62316674  0.46698569  0.53072909
   0.46502155  0.54213739  0.38422188
   0.44401386  0.57672484  0.55895333
   0.70083729  0.39849434  0.46590561
   0.64292922  0.47215315  0.63872746
Direct configuration=    77
   0.50764048  0.53433769  0.48789886
   0.62313423  0.46627948  0.53112527
   0.46958707  0.53911139  0.39128526
   0.44622270  0.57795247  0.55673697
   0.69220792  0.40154106  0.47003860
   0.64267731  0.47398222  0.63366038
Direct configuration=    78
   0.50822707  0.53454162  0.48723374
   0.62288244  0.46565789  0.53129514
   0.47384266  0.53588863  0.39628409
   0.44701504  0.58057875  0.55667842
   0.68287238  0.40540107  0.47442688
   0.64294360  0.47573522  0.63028022
Direct configuration=    79
   0.50925349  0.53451592  0.48692920
   0.62221512  0.46528443  0.53129406
   0.47651798  0.53250249  0.39603582
   0.44676589  0.58441032  0.55829378
   0.67506085  0.40791914  0.47706566
   0.64401576  0.47756611  0.62994516
Direct configuration=    80
   0.51063070  0.53433843  0.48709491
   0.62097353  0.46535496  0.53134200
   0.47739789  0.52886541  0.39022331
   0.44630911  0.58882127  0.56045526
   0.67110578  0.40650941  0.47560787
   0.64591887  0.47948663  0.63248779
Direct configuration=    81
   0.51214915  0.53409532  0.48754228
   0.61926456  0.46584751  0.53156652
   0.47743075  0.52507754  0.38192703
   0.44639547  0.59314770  0.56208905
   0.67080536  0.40116125  0.47021701
   0.64838842  0.48130019  0.63647105
Direct configuration=    82
   0.51359831  0.53386456  0.48804038
   0.61740201  0.46651070  0.53191650
   0.47753098  0.52141643  0.37425581
   0.44748678  0.59689282  0.56248093
   0.67194071  0.39443010  0.46350037
   0.65102670  0.48275333  0.64028083
Direct configuration=    83
   0.51481229  0.53372013  0.48842807
   0.61567009  0.46710694  0.53234705
   0.47817301  0.51814931  0.36900486
   0.44975928  0.59977391  0.56129141
   0.67282040  0.38848262  0.45765104
   0.65345348  0.48366024  0.64274269
Direct configuration=    84
   0.51567359  0.53372489  0.48859832
   0.61426777  0.46747815  0.53285861
   0.47951889  0.51547477  0.36697211
   0.45314448  0.60172686  0.55849514
   0.67265490  0.38441888  0.45381004
   0.65538599  0.48392978  0.64322350
Direct configuration=    85
   0.51612247  0.53391247  0.48847437
   0.61331641  0.46752912  0.53346059
   0.48155999  0.51353194  0.36838905
   0.45733951  0.60293718  0.55435099
   0.67117060  0.38266434  0.45246056
   0.65666960  0.48355162  0.64155855
Direct configuration=    86
   0.51617365  0.53426680  0.48800510
   0.61285932  0.46721598  0.53413776
   0.48417303  0.51240252  0.37309180
   0.46179969  0.60390387  0.54940984
   0.66833861  0.38329830  0.45375346
   0.65730359  0.48258565  0.63800699
Direct configuration=    87
   0.51592229  0.53471716  0.48718374
   0.61285719  0.46654373  0.53483229
   0.48709398  0.51206745  0.38039997
   0.46579000  0.60545605  0.54447573
   0.66428386  0.38615952  0.45761051
   0.65749187  0.48117245  0.63329926
Direct configuration=    88
   0.51552279  0.53517321  0.48610226
   0.61318800  0.46556913  0.53544987
   0.48981771  0.51228298  0.38869004
   0.46863148  0.60851316  0.54035414
   0.65933810  0.39073291  0.46361263
   0.65769742  0.47955475  0.62870050
Direct configuration=    89
   0.51514432  0.53560438  0.48502556
   0.61365742  0.46441721  0.53591240
   0.49148120  0.51239155  0.39488321
   0.47010433  0.61348647  0.53738001
   0.65422805  0.39579895  0.47065631
   0.65857868  0.47806376  0.62581472
Direct configuration=    90
   0.51492016  0.53607906  0.48432703
   0.61403137  0.46331718  0.53627150
   0.49108681  0.51143364  0.39529460
   0.47057032  0.61987396  0.53522265
   0.65030773  0.39894828  0.47650153
   0.66062828  0.47699590  0.62579224
Direct configuration=    91
   0.51487632  0.53665762  0.48412273
   0.61412068  0.46256365  0.53674415
   0.48850902  0.50919497  0.38953160
   0.47063692  0.62662243  0.53326174
   0.64917764  0.39709961  0.47834622
   0.66372346  0.47643623  0.62844840
Direct configuration=    92
   0.51493528  0.53731983  0.48418557
   0.61393301  0.46223093  0.53743155
   0.48471622  0.50656080  0.38108306
   0.47082963  0.63269601  0.53099446
   0.65084546  0.38987743  0.47598839
   0.66720175  0.47626157  0.63251090
Direct configuration=    93
   0.51501731  0.53802955  0.48427683
   0.61363788  0.46210897  0.53821436
   0.48073062  0.50442706  0.37327254
   0.47149066  0.63734476  0.52815510
   0.65362999  0.38027200  0.47210400
   0.67030134  0.47629248  0.63654659
Direct configuration=    94
   0.51508356  0.53875869  0.48426289
   0.61337305  0.46199898  0.53897890
   0.47720563  0.50327107  0.36791792
   0.47278534  0.64016219  0.52469531
   0.65610506  0.37108159  0.46896069
   0.67244160  0.47638483  0.63948894
Direct configuration=    95
   0.51513074  0.53947519  0.48408223
   0.61319813  0.46180311  0.53967077
   0.47450442  0.50326502  0.36579586
   0.47472687  0.64108526  0.52073615
   0.65754706  0.36384397  0.46765294
   0.67329355  0.47645210  0.64073773
Direct configuration=    96
   0.51518000  0.54013067  0.48370774
   0.61311849  0.46148933  0.54025998
   0.47282417  0.50441191  0.36713341
   0.47719191  0.64040743  0.51653651
   0.65765775  0.35925814  0.46856755
   0.67276303  0.47646470  0.64010617
Direct configuration=    97
   0.51526992  0.54065510  0.48313015
   0.61310672  0.46105535  0.54071381
   0.47224913  0.50659741  0.37180961
   0.47993120  0.63881108  0.51247831
   0.65633889  0.35759624  0.47175623
   0.67097901  0.47645116  0.63778612
Direct configuration=    98
   0.51545390  0.54096497  0.48236568
   0.61311098  0.46051093  0.54098362
   0.47271249  0.50955658  0.37928289
   0.48261362  0.63732451  0.50903144
   0.65359907  0.35887593  0.47708078
   0.66831208  0.47651594  0.63437640
Direct configuration=    99
   0.51580112  0.54099987  0.48149196
   0.61305549  0.45987899  0.54100657
   0.47383134  0.51276411  0.38825276
   0.48495275  0.63701976  0.50664693
   0.64956706  0.36279407  0.48418344
   0.66538210  0.47686615  0.63090706
Direct configuration=   100
   0.51640451  0.54078429  0.48070226
   0.61284349  0.45922159  0.54073654
   0.47460135  0.51529759  0.39616457
   0.48688881  0.63843504  0.50558565
   0.64460264  0.36838809  0.49231359
   0.66293939  0.47780874  0.62865480
Direct configuration=   101
   0.51737769  0.54044772  0.48028605
   0.61237440  0.45870020  0.54021834
   0.47334886  0.51598322  0.39953467
   0.48864185  0.64121607  0.50580253
   0.63947737  0.37340038  0.50008359
   0.66150964  0.47963462  0.62852090
Direct configuration=   102
   0.51874233  0.54012017  0.48036172
   0.61157894  0.45860987  0.53963433
   0.46918758  0.51438628  0.39704334
   0.49055501  0.64441851  0.50700782
   0.63534196  0.37404507  0.50562886
   0.66105673  0.48240355  0.63036738
Direct configuration=   103
   0.52032194  0.53984601  0.48070939
   0.61049646  0.45913468  0.53916385
   0.46340442  0.51137374  0.39134171
   0.49291277  0.64705539  0.50881665
   0.63274257  0.36794427  0.50818664
   0.66111036  0.48586949  0.63317753
Direct configuration=   104
   0.52188326  0.53965138  0.48105210
   0.60930443  0.46003199  0.53884342
   0.45783250  0.50804218  0.38558013
   0.49585967  0.64841336  0.51085718
   0.63089895  0.35771567  0.50903605
   0.66114350  0.48963177  0.63578157
Direct configuration=   105
   0.52324622  0.53957841  0.48120884
   0.60818807  0.46093052  0.53868524
   0.45364615  0.50511106  0.38157821
   0.49939702  0.64815056  0.51282776
   0.62895075  0.34733455  0.50956584
   0.66077877  0.49329107  0.63730047
Direct configuration=   106
   0.52429456  0.53966317  0.48107674
   0.60727243  0.46157990  0.53872692
   0.45140195  0.50298079  0.38011791
   0.50340822  0.64631513  0.51452724
   0.62653409  0.33925066  0.51045904
   0.65983463  0.49652284  0.63725408
Direct configuration=   107
   0.52496901  0.53990670  0.48059962
   0.60662086  0.46184896  0.53899898
   0.45130169  0.50187676  0.38143880
   0.50768642  0.64335125  0.51587703
   0.62359746  0.33457603  0.51196023
   0.65831849  0.49910884  0.63554513
Direct configuration=   108
   0.52526577  0.54025691  0.47975645
   0.60623779  0.46168442  0.53949578
   0.45332655  0.50192134  0.38546978
   0.51197232  0.64008516  0.51694358
   0.62022126  0.33371577  0.51412830
   0.65642058  0.50096036  0.63243979
Direct configuration=   109
   0.52523703  0.54061877  0.47856923
   0.60607157  0.46108504  0.54016245
   0.45719793  0.50311420  0.39180021
   0.51601978  0.63757441  0.51791975
   0.61654360  0.33669311  0.51694254
   0.65452104  0.50215385  0.62857132
Direct configuration=   110
   0.52499733  0.54090771  0.47713566
   0.60602547  0.46009313  0.54090145
   0.46212868  0.50518866  0.39938384
   0.51967288  0.63669215  0.51898863
   0.61274512  0.34313824  0.52031486
   0.65316849  0.50295988  0.62488896
Direct configuration=   111
   0.52474643  0.54112808  0.47568208
   0.60598223  0.45881678  0.54160694
   0.46637243  0.50732683  0.40603560
   0.52288432  0.63763324  0.52009813
   0.60904732  0.35192604  0.52403431
   0.65294398  0.50377616  0.62239366
Direct configuration=   112
   0.52476673  0.54139695  0.47455389
   0.60584369  0.45749892  0.54222498
   0.46717410  0.50808170  0.40850489
   0.52564476  0.63986613  0.52088943
   0.60567315  0.36043802  0.52766592
   0.65417623  0.50487581  0.62162877
Direct configuration=   113
   0.52522277  0.54180425  0.47395250
   0.60557217  0.45656448  0.54279137
   0.46308851  0.50670705  0.40529651
   0.52793327  0.64260029  0.52090432
   0.60269955  0.36414455  0.53055279
   0.65673065  0.50614135  0.62235569
Direct configuration=   114
   0.52597209  0.54228154  0.47372552
   0.60519487  0.45634514  0.54336997
   0.45616111  0.50438752  0.39888356
   0.52973619  0.64519471  0.51980654
   0.59995640  0.35977044  0.53235694
   0.66012995  0.50714217  0.62383895
Direct configuration=   115
   0.52679845  0.54273428  0.47364670
   0.60474771  0.45665569  0.54397036
   0.44913435  0.50255557  0.39230806
   0.53106214  0.64725636  0.51743799
   0.59740833  0.35007296  0.53354465
   0.66382421  0.50744214  0.62533077
Direct configuration=   116
   0.52756528  0.54311406  0.47357719
   0.60424992  0.45713224  0.54458716
   0.44367106  0.50193916  0.38731607
   0.53195133  0.64861973  0.51380541
   0.59523787  0.33972817  0.53465089
   0.66733739  0.50675461  0.62627562
Direct configuration=   117
   0.52820383  0.54339756  0.47344530
   0.60371703  0.45754796  0.54522427