CH4 AIMD Simulation                     
           1
    10.000000    0.000000    0.000000
     0.000000   10.000000    0.000000
     0.000000    0.000000   10.000000
   C    H 
     2     6
Direct configuration=     1
   0.50000000  0.50000000  0.50000000
   0.65000000  0.50000000  0.50000000
   0.45000000  0.60000000  0.50000000
   0.45000000  0.40000000  0.50000000
   0.50000000  0.50000000  0.61000000
   0.50000000  0.50000000  0.39000000
   0.70000000  0.60000000  0.50000000
   0.70000000  0.40000000  0.50000000
Direct configuration=     2
   0.50002431  0.49988167  0.50022857
   0.65068068  0.49999874  0.49953230
   0.45294655  0.59967678  0.49747959
   0.44931506  0.40017600  0.50123647
   0.49971674  0.50072842  0.61074329
   0.50034044  0.50027394  0.38843586
   0.70105692  0.59435239  0.50039794
   0.70103520  0.40013959  0.50348306
Direct configuration=     3
   0.50001857  0.49977332  0.50020232
   0.65137972  0.49987946  0.49911753
   0.45483986  0.59976775  0.49539369
   0.44824880  0.40038823  0.50275080
   0.49986120  0.50174402  0.61554585
   0.49973698  0.50036095  0.38288075
   0.70326725  0.59062131  0.50059248
   0.70253009  0.40015975  0.50730668
Direct configuration=     4
   0.50004113  0.49966951  0.50024458
   0.65204326  0.49946576  0.49874055
   0.45568827  0.60027248  0.49364236
   0.44698855  0.40082100  0.50358436
   0.49910957  0.50289519  0.62235278
   0.49947018  0.50030946  0.37517047
   0.70666989  0.58893558  0.50076347
   0.70411408  0.40057273  0.51083463
Direct configuration=     5
   0.50005617  0.49951310  0.50058162
   0.65252710  0.49886437  0.49830503
   0.45581131  0.60060378  0.49184444
   0.44541313  0.40164128  0.50400786
   0.49702452  0.50394767  0.63089331
   0.50060595  0.50023885  0.36578582
   0.71126945  0.58929111  0.50101245
   0.70578940  0.40101062  0.51397629
Direct configuration=     6
   0.50024654  0.49935816  0.50130052
   0.65307837  0.49822574  0.49761555
   0.45528133  0.60077448  0.48978154
   0.44394428  0.40283183  0.50404117
   0.49303391  0.50523345  0.63786076
   0.50348757  0.50014237  0.35809946
   0.71554167  0.58943176  0.50080531
   0.70643814  0.40309471  0.51690310
Direct configuration=     7
   0.50039770  0.49926935  0.50246789
   0.65358059  0.49753093  0.49672140
   0.45462417  0.60034263  0.48734949
   0.44303553  0.40462361  0.50315662
   0.48750930  0.50604794  0.64393716
   0.50908578  0.49971371  0.35084473
   0.71894086  0.58940172  0.50057297
   0.70659329  0.40560435  0.51979557
Direct configuration=     8
   0.50058917  0.49930324  0.50399566
   0.65405699  0.49694945  0.49557871
   0.45405461  0.59844243  0.48489669
   0.44221943  0.40686196  0.50165780
   0.48132709  0.50677279  0.64861010
   0.51684868  0.49903864  0.34446917
   0.72122347  0.58850306  0.50057542
   0.70685424  0.40777311  0.52231281
Direct configuration=     9
   0.50075867  0.49946561  0.50608934
   0.65431465  0.49648313  0.49435560
   0.45330593  0.59556775  0.48235090
   0.44161514  0.40919457  0.49917580
   0.47483896  0.50766429  0.65147961
   0.52686479  0.49797191  0.33861966
   0.72268257  0.58695237  0.50065970
   0.70728844  0.40938542  0.52483174
Direct configuration=    10
   0.50094774  0.49975449  0.50862847
   0.65431417  0.49608495  0.49282550
   0.45262007  0.59285874  0.47945457
   0.44147513  0.41111367  0.49652904
   0.46813552  0.50847798  0.65222227
   0.53939796  0.49646110  0.33357805
   0.72272876  0.58513580  0.50050337
   0.70803343  0.40966343  0.52703828
Direct configuration=    11
   0.50118565  0.50017611  0.51170787
   0.65399245  0.49568928  0.49111744
   0.45177541  0.58984251  0.47615783
   0.44135873  0.41253805  0.49326688
   0.46198924  0.50901784  0.65082202
   0.55460383  0.49476533  0.32940328
   0.72164322  0.58286977  0.49987133
   0.70860725  0.40887450  0.52922976
Direct configuration=    12
   0.50139484  0.50067496  0.51520820
   0.65341184  0.49529197  0.48931983
   0.45066996  0.58692740  0.47272518
   0.44113261  0.41344695  0.48980018
   0.45691585  0.50952693  0.64634672
   0.57241731  0.49310787  0.32658564
   0.71960014  0.58095817  0.49857294
   0.70861723  0.40764800  0.53076352
Direct configuration=    13
   0.50162434  0.50110082  0.51901606
   0.65256522  0.49486289  0.48740726
   0.44949678  0.58445002  0.46893045
   0.44137730  0.41376143  0.48603609
   0.45334938  0.50976341  0.63902549
   0.59276357  0.49142183  0.32597139
   0.71688081  0.57949629  0.49706330
   0.70813333  0.40637927  0.53165679
Direct configuration=    14
   0.50165814  0.50152781  0.52318372
   0.65148135  0.49429126  0.48533933
   0.44861005  0.58164707  0.46506480
   0.44212619  0.41369518  0.48203354
   0.45169434  0.51016913  0.62907839
   0.61553983  0.48935172  0.32791702
   0.71406502  0.57918997  0.49564101
   0.70717172  0.40565540  0.53153973
Direct configuration=    15
   0.50154312  0.50192930  0.52725766
   0.65012898  0.49354158  0.48301603
   0.44838038  0.57895335  0.46160294
   0.44351134  0.41391644  0.47857822
   0.45184852  0.51065153  0.61848026
   0.63989585  0.48729302  0.33342513
   0.71103116  0.58016133  0.49407815
   0.70561962  0.40535159  0.53033767
Direct configuration=    16
   0.50131808  0.50237212  0.53087777
   0.64874034  0.49270089  0.48045852
   0.44916811  0.57624843  0.45862889
   0.44583669  0.41474662  0.47589920
   0.45200251  0.51140694  0.61027306
   0.66443090  0.48500718  0.34281862
   0.70824695  0.58152868  0.49265285
   0.70390774  0.40596567  0.52835466
Direct configuration=    17
   0.50124227  0.50269757  0.53346457
   0.64733671  0.49198582  0.47782969
   0.45062389  0.57352447  0.45646356
   0.44922041  0.41600071  0.47447392
   0.44956215  0.51325150  0.60917574
   0.68759131  0.48244574  0.35608049
   0.70589960  0.58367281  0.49202644
   0.70171574  0.40741866  0.52579041
Direct configuration=    18
   0.50148172  0.50296516  0.53477998
   0.64609725  0.49126594  0.47518000
   0.45279458  0.57069152  0.45559161
   0.45341783  0.41774285  0.47422262
   0.44373659  0.51635698  0.61629874
   0.70812936  0.47994617  0.37212362
   0.70349101  0.58598522  0.49237356
   0.69988790  0.40895146  0.52365207
Direct configuration=    19
   0.50166640  0.50304291  0.53527618
   0.64498801  0.49066904  0.47261976
   0.45540819  0.56803170  0.45573077
   0.45756620  0.41969797  0.47546286
   0.43747103  0.51987254  0.62701783
   0.72554961  0.47745127  0.38830963
   0.70092310  0.58787747  0.49371088
   0.69792924  0.41056691  0.52251614
Direct configuration=    20
   0.50174461  0.50312762  0.53525971
   0.64427735  0.49031644  0.47026735
   0.45779932  0.56604523  0.45704136
   0.46121266  0.42101716  0.47791902
   0.43284925  0.52341242  0.63762478
   0.73902962  0.47472506  0.40321261
   0.69814737  0.58891933  0.49569454
   0.69644640  0.41188804  0.52299213
Direct configuration=    21
   0.50169682  0.50313015  0.53506872
   0.64382299  0.49017026  0.46807806
   0.45939363  0.56567871  0.45860169
   0.46361871  0.42045045  0.48123185
   0.43164281  0.52606066  0.64622783
   0.74953223  0.47207076  0.41585003
   0.69477011  0.58955676  0.49856229
   0.69562436  0.41265819  0.52579122
Direct configuration=    22
   0.50141887  0.50312731  0.53474823
   0.64376276  0.49021148  0.46627651
   0.45997831  0.56690951  0.46042608
   0.46427590  0.41810262  0.48497359
   0.43379513  0.52824830  0.65200735
   0.75657640  0.46965398  0.42613590
   0.69123583  0.58975455  0.50202058
   0.69474390  0.41294239  0.53030137
Direct configuration=    23
   0.50098584  0.50308759  0.53441216
   0.64416875  0.49035170  0.46476882
   0.45916531  0.56990019  0.46244481
   0.46356321  0.41356333  0.48961335
   0.43879972  0.52952214  0.65478590
   0.76007083  0.46737848  0.43404324
   0.68771777  0.58878800  0.50554510
   0.69355539  0.41361384  0.53624706
Direct configuration=    24
   0.50039398  0.50304212  0.53397981
   0.64491614  0.49057568  0.46365509
   0.45756511  0.57423852  0.46447111
   0.46151801  0.40795483  0.49485069
   0.44678152  0.52990809  0.65460336
   0.76024985  0.46531820  0.44011838
   0.68440032  0.58724351  0.50922710
   0.69163178  0.41447143  0.54287319
Direct configuration=    25
   0.49968487  0.50304771  0.53354390
   0.64590280  0.49094215  0.46287740
   0.45492596  0.57957318  0.46662663
   0.45865235  0.40224247  0.50060922
   0.45731421  0.52924491  0.65134120
   0.75800896  0.46283143  0.44425742
   0.68104525  0.58567362  0.51279215
   0.68915744  0.41553622  0.54986427
Direct configuration=    26
   0.49878019  0.50288272  0.53292845
   0.64710194  0.49134500  0.46248621
   0.45181999  0.58485192  0.46919997
   0.45540407  0.39760399  0.50683092
   0.47029088  0.52810359  0.64553587
   0.75374442  0.45990779  0.44640544
   0.67798293  0.58428308  0.51621161
   0.68629352  0.41764497  0.55641799
Direct configuration=    27
   0.49773753  0.50259946  0.53212398
   0.64853508  0.49192318  0.46262524
   0.44859769  0.58941545  0.47231409
   0.45193669  0.39478910  0.51350265
   0.48508119  0.52660799  0.63790918
   0.74876145  0.45636159  0.44621532
   0.67565403  0.58311157  0.51954167
   0.68284680  0.42098266  0.56210036
Direct configuration=    28
   0.49669470  0.50213589  0.53102546
   0.64991290  0.49241836  0.46343390
   0.44561131  0.59234623  0.47638550
   0.44846582  0.39406030  0.52024574
   0.50040059  0.52509202  0.63075773
   0.74406991  0.45216565  0.44325419
   0.67454122  0.58253645  0.52266878
   0.67867332  0.42494340  0.56661373
Direct configuration=    29
   0.49564301  0.50150929  0.52951984
   0.65105917  0.49302024  0.46495421
   0.44306213  0.59333072  0.48108882
   0.44482631  0.39565516  0.52693650
   0.51574962  0.52419754  0.62678909
   0.74080593  0.44662628  0.43751128
   0.67465718  0.58295003  0.52495313
   0.67448126  0.42974539  0.57005689
Direct configuration=    30
   0.49456565  0.50075243  0.52747472
   0.65209086  0.49366501  0.46707833
   0.44055577  0.59293418  0.48633650
   0.44165127  0.39907491  0.53350711
   0.53126827  0.52392464  0.62557341
   0.73809473  0.44003740  0.42912170
   0.67585342  0.58405938  0.52613616
   0.67015753  0.43515310  0.57207223
Direct configuration=    31
   0.49351243  0.49988465  0.52526770
   0.65312911  0.49423670  0.46958437
   0.43774963  0.59140312  0.49177047
   0.43874457  0.40407931  0.53982299
   0.54535738  0.52368673  0.62505899
   0.73502229  0.43347227  0.41883223
   0.67829360  0.58614689  0.52617138
   0.66626804  0.44112635  0.57220025
Direct configuration=    32
   0.49259097  0.49899284  0.52326123
   0.65412478  0.49462537  0.47235059
   0.43472991  0.58900361  0.49658186
   0.43589841  0.40957484  0.54551139
   0.55679150  0.52331471  0.62438102
   0.73048654  0.42787064  0.40771328
   0.68163833  0.58840117  0.52464687
   0.66321182  0.44664709  0.57147271
Direct configuration=    33
   0.49195803  0.49833018  0.52127470
   0.65507372  0.49490063  0.47529771
   0.43145329  0.58609044  0.50090136
   0.43277890  0.41450407  0.55060520
   0.56469103  0.52293357  0.62302453
   0.72381096  0.42412653  0.39675036
   0.68607552  0.59081029  0.52122827
   0.66225588  0.45081370  0.57052231
Direct configuration=    34
   0.49167223  0.49795255  0.51954344
   0.65595139  0.49497187  0.47814780
   0.42805100  0.58370367  0.50434625
   0.42998708  0.41806572  0.55530089
   0.56814643  0.52323930  0.62084925
   0.71508378  0.42287050  0.38709451
   0.69145282  0.59336912  0.51638551
   0.66383235  0.45273511  0.57013168
Direct configuration=    35
   0.49172817  0.49777203  0.51808093
   0.65675956  0.49490497  0.48073406
   0.42462708  0.58195348  0.50676868
   0.42730281  0.41990913  0.55956164
   0.56724837  0.52398206  0.61831404
   0.70462387  0.42416953  0.37950478
   0.69707939  0.59609477  0.51009774
   0.66810870  0.45168510  0.57147261
Direct configuration=    36
   0.49201809  0.49770291  0.51692184
   0.65752106  0.49485899  0.48291208
   0.42140255  0.58046106  0.50825569
   0.42511815  0.42062108  0.56325242
   0.56241138  0.52550607  0.61542457
   0.69310861  0.42754407  0.37400216
   0.70236651  0.59881947  0.50261035
   0.67531420  0.44756323  0.57515435
Direct configuration=    37
   0.49249645  0.49783339  0.51595433
   0.65824585  0.49468892  0.48491184
   0.41899378  0.58002168  0.50882872
   0.42439916  0.42086874  0.56586976
   0.55370718  0.52747252  0.61195619
   0.68125352  0.43283926  0.37171812
   0.70702973  0.60049046  0.49426205
   0.68432615  0.44143373  0.57945962
Direct configuration=    38
   0.49311179  0.49800906  0.51541276
   0.65892302  0.49448287  0.48656144
   0.41738525  0.58040061  0.50784312
   0.42488885  0.42054279  0.56732651
   0.54265698  0.52971705  0.60888155
   0.66962435  0.43966997  0.37263357
   0.71031313  0.60058983  0.48515543
   0.69459049  0.43472206  0.58274712
Direct configuration=    39
   0.49380586  0.49822891  0.51515639
   0.65946593  0.49429435  0.48789735
   0.41656979  0.58113321  0.50562008
   0.42711149  0.41971841  0.56788424
   0.53026814  0.53252315  0.60722817
   0.65874263  0.44752908  0.37646729
   0.71251231  0.59895737  0.47634257
   0.70507765  0.42907606  0.58342916
Direct configuration=    40
   0.49443539  0.49850382  0.51500108
   0.65996034  0.49399511  0.48902276
   0.41696345  0.58187821  0.50233516
   0.43056486  0.41860813  0.56706501
   0.51726373  0.53688112  0.60915026
   0.64883040  0.45568260  0.38272195
   0.71351880  0.59592247  0.46824552
   0.71440300  0.42493711  0.58132861
Direct configuration=    41
   0.49498047  0.49881735  0.51504962
   0.66030890  0.49362655  0.49016702
   0.41859699  0.58193941  0.49762711
   0.43482507  0.41711352  0.56426344
   0.50462751  0.54238910  0.61391871
   0.64055184  0.46323041  0.39020998
   0.71308669  0.59177035  0.46131180
   0.72198030  0.42252239  0.57676859
Direct configuration=    42
   0.49562926  0.49911899  0.51530087
   0.66057826  0.49310987  0.49133743
   0.42126968  0.58124945  0.49178713
   0.44015671  0.41488463  0.56018837
   0.49238858  0.54815556  0.62022933
   0.63408460  0.46882913  0.39610383
   0.71174668  0.58729560  0.45612554
   0.72752310  0.42189853  0.56917194
Direct configuration=    43
   0.49626024  0.49953938  0.51594502
   0.66080049  0.49267651  0.49262170
   0.42448799  0.57970571  0.48428188
   0.44578419  0.41204369  0.55536133
   0.48057698  0.55369339  0.62658373
   0.62828741  0.47117614  0.39871106
   0.71047273  0.58303953  0.45253693
   0.73117938  0.42307673  0.55997351
Direct configuration=    44
   0.49704294  0.50025168  0.51709425
   0.66101614  0.49222285  0.49413704
   0.42865683  0.57747362  0.47525599
   0.45123821  0.40858593  0.54988782
   0.46977426  0.55823620  0.63137595
   0.62365033  0.47074379  0.39776173
   0.70883242  0.57906153  0.45043214
   0.73265392  0.42552682  0.54931131
Direct configuration=    45
   0.49783036  0.50127316  0.51873209
   0.66090315  0.49171546  0.49549520
   0.43295526  0.57474219  0.46514838
   0.45612075  0.40414708  0.54374330
   0.46027149  0.56144151  0.63440627
   0.62010444  0.46773669  0.39473092
   0.70730545  0.57620811  0.44940002
   0.73330643  0.42788566  0.53855516
Direct configuration=    46
   0.49856846  0.50252883  0.52084710
   0.66036873  0.49136586  0.49654915
   0.43837137  0.57103403  0.45418414
   0.46028898  0.39888195  0.53688634
   0.45187946  0.56319238  0.63469914
   0.61796642  0.46288277  0.39127003
   0.70589203  0.57458761  0.44918224
   0.73396567  0.42904639  0.52890395
Direct configuration=    47
   0.49933051  0.50388304  0.52333198
   0.65932808  0.49119828  0.49717032
   0.44480070  0.56642687  0.44293960
   0.46475318  0.39461615  0.52965358
   0.44531148  0.56300281  0.63246548
   0.61730430  0.45733408  0.38826146
   0.70507345  0.57511356  0.44989191
   0.73595275  0.42751254  0.52145319
Direct configuration=    48
   0.50001249  0.50528714  0.52605201
   0.65780647  0.49104822  0.49743163
   0.45218399  0.56062716  0.43259970
   0.46891297  0.39177979  0.52237220
   0.44074046  0.56132423  0.62762561
   0.61801739  0.45127948  0.38673875
   0.70458874  0.57749650  0.45114294
   0.73920679  0.42402891  0.51556974
Direct configuration=    49
   0.50052989  0.50682981  0.52888467
   0.65599048  0.49092808  0.49735237
   0.46032610  0.55411463  0.42398718
   0.47272939  0.39111675  0.51572547
   0.43831737  0.55794546  0.62035682
   0.62047794  0.44564502  0.38707904
   0.70402178  0.58097072  0.45303939
   0.74287756  0.41965519  0.51082636
Direct configuration=    50
   0.50086342  0.50825381  0.53170920
   0.65431293  0.49075457  0.49695825
   0.46905565  0.54746255  0.41805088
   0.47576358  0.39303585  0.51005976
   0.43781625  0.55336465  0.61150023
   0.62462021  0.44060482  0.38912800
   0.70286166  0.58466403  0.45557357
   0.74517382  0.41547405  0.50758375
Direct configuration=    51
   0.50125363  0.50954659  0.53420000
   0.65284472  0.49057929  0.49617206
   0.47770376  0.54080002  0.41485254
   0.47798562  0.39676252  0.50592698
   0.43816067  0.54876835  0.60301572
   0.62988911  0.43652335  0.39319253
   0.70149533  0.58802796  0.45904605
   0.74568645  0.41213877  0.50603587
Direct configuration=    52
   0.50184988  0.51040686  0.53589936
   0.65151143  0.49035230  0.49506078
   0.48595562  0.53411954  0.41507282
   0.47953928  0.40167076  0.50371965
   0.43706203  0.54554627  0.59759489
   0.63557527  0.43366154  0.39852053
   0.69953536  0.59044567  0.46276538
   0.74414554  0.41006352  0.50609320
Direct configuration=    53
   0.50280615  0.51075424  0.53670627
   0.65038974  0.49017642  0.49381058
   0.49290020  0.52852338  0.41835915
   0.48017677  0.40716617  0.50310283
   0.43299157  0.54520649  0.59678681
   0.64120416  0.43165838  0.40366721
   0.69733431  0.59181064  0.46695719
   0.74082562  0.40973375  0.50843118
Direct configuration=    54
   0.50406544  0.51058875  0.53688653
   0.64953156  0.49003291  0.49254976
   0.49831700  0.52472289  0.42364990
   0.47907468  0.41205687  0.50414513
   0.42643747  0.54693284  0.59944299
   0.64615469  0.43021414  0.40753036
   0.69490635  0.59200948  0.47136266
   0.73601438  0.41076049  0.51265879
Direct configuration=    55
   0.50543098  0.51022265  0.53661360
   0.64902413  0.48997125  0.49148465
   0.50161251  0.52308454  0.42989502
   0.47661316  0.41470867  0.50652315
   0.42020570  0.54965984  0.60326399
   0.64997731  0.42839955  0.40826200
   0.69255698  0.59098923  0.47574099
   0.73030739  0.41342368  0.51918898
Direct configuration=    56
   0.50661790  0.50972825  0.53622285
   0.64891812  0.48996780  0.49053671
   0.50282044  0.52376992  0.43528632
   0.47265216  0.41438981  0.50972340
   0.41632460  0.55222948  0.60614982
   0.65284838  0.42654443  0.40599351
   0.69125451  0.58932942  0.47970948
   0.72434934  0.41717105  0.52777512
Direct configuration=    57
   0.50751938  0.50920924  0.53608602
   0.64892831  0.49002315  0.48983858
   0.50136480  0.52743457  0.43751633
   0.46701397  0.41152889  0.51380905
   0.41580633  0.55473025  0.60829907
   0.65467817  0.42485790  0.40133554
   0.69051141  0.58792026  0.48311466
   0.71878813  0.42136209  0.53843627
Direct configuration=    58
   0.50806753  0.50858760  0.53621666
   0.64912591  0.48990787  0.48923090
   0.49694479  0.53388571  0.43602669
   0.46069199  0.40757051  0.51885200
   0.41838423  0.55676137  0.60937895
   0.65569715  0.42446721  0.39546965
   0.69075585  0.58750499  0.48560336
   0.71336279  0.42581594  0.55071723
Direct configuration=    59
   0.50824540  0.50788221  0.53654399
   0.64958891  0.48958700  0.48884686
   0.48989483  0.54195432  0.43258557
   0.45416323  0.40382806  0.52485726
   0.42423112  0.55857369  0.60934352
   0.65638958  0.42544467  0.38997183
   0.69158287  0.58798937  0.48761066
   0.70825970  0.43013925  0.56393304
Direct configuration=    60
   0.50806323  0.50689623  0.53663997
   0.65021466  0.48903989  0.48861529
   0.48123076  0.55057233  0.42978619
   0.44841838  0.40134084  0.53125838
   0.43328205  0.56021216  0.60808721
   0.65708394  0.42779692  0.38586956
   0.69354180  0.58934383  0.48896968
   0.70331434  0.43441886  0.57637320
Direct configuration=    61
   0.50741664  0.50588118  0.53642159
   0.65094232  0.48829302  0.48863885
   0.47188820  0.55860677  0.42899149
   0.44416607  0.40089636  0.53780713
   0.44458924  0.56219450  0.60658490
   0.65745037  0.43152631  0.38382029
   0.69650130  0.59073396  0.48957914
   0.69847413  0.43908837  0.58692261
Direct configuration=    62
   0.50643827  0.50482571  0.53591541
   0.65168323  0.48757055  0.48880796
   0.46247459  0.56548374  0.43110792
   0.44185978  0.40198924  0.54415499
   0.45716110  0.56517388  0.60599332
   0.65818186  0.43605851  0.38408633
   0.69926429  0.59162230  0.48942965
   0.69428499  0.44399219  0.59513325
Direct configuration=    63
   0.50511836  0.50362134  0.53490939
   0.65239696  0.48686187  0.48920285
   0.45342353  0.57058739  0.43581354
   0.44134722  0.40513095  0.54971355
   0.47015405  0.56971975  0.60738914
   0.65897774  0.44140478  0.38615622
   0.70155493  0.59200545  0.48883180
   0.69066265  0.44884845  0.60016889
Direct configuration=    64
   0.50362615  0.50230091  0.53342951
   0.65299222  0.48636298  0.48997325
   0.44502414  0.57369013  0.44268276
   0.44190979  0.40992658  0.55453075
   0.48371071  0.57569755  0.61097226
   0.66022208  0.44623979  0.38924149
   0.70324192  0.59127812  0.48798399
   0.68755632  0.45322901  0.60214038
Direct configuration=    65
   0.50200207  0.50113012  0.53160840
   0.65352904  0.48590415  0.49115154
   0.43779562  0.57425996  0.45136407
   0.44342061  0.41511394  0.55938879
   0.49760511  0.58139246  0.61527973
   0.66187517  0.44960263  0.39289286
   0.70413283  0.58922723  0.48676037
   0.68510362  0.45728224  0.60134621
Direct configuration=    66
   0.50043341  0.50034897  0.52968261
   0.65400108  0.48570161  0.49262861
   0.43199676  0.57249391  0.46113500
   0.44529636  0.41986137  0.56398592
   0.51148163  0.58518802  0.61907151
   0.66437011  0.45142959  0.39563236
   0.70449628  0.58632666  0.48541328
   0.68298637  0.46001676  0.59779525
Direct configuration=    67
   0.49894237  0.50021147  0.52776309
   0.65436405  0.48579602  0.49424053
   0.42740158  0.56893642  0.47146481
   0.44636357  0.42249435  0.56926542
   0.52471845  0.58657014  0.62173733
   0.66795170  0.45112313  0.39663747
   0.70415338  0.58316658  0.48402987
   0.68217100  0.46117457  0.59322092
Direct configuration=    68
   0.49775340  0.50071457  0.52589692
   0.65446763  0.48610826  0.49598190
   0.42379960  0.56449075  0.48117013
   0.44648707  0.42280347  0.57512572
   0.53657925  0.58556691  0.62232750
   0.67234089  0.44859366  0.39635997
   0.70347867  0.58088313  0.48291139
   0.68302990  0.46056748  0.58870581
Direct configuration=    69
   0.49687801  0.50150512  0.52432032
   0.65422561  0.48652757  0.49739504
   0.42002274  0.56065678  0.48888951
   0.44648064  0.42178148  0.58124092
   0.54625035  0.58232516  0.62131129
   0.67759648  0.44450627  0.39617914
   0.70217909  0.58004268  0.48218275
   0.68605181  0.45760469  0.58686720
Direct configuration=    70
   0.49627623  0.50228973  0.52325741
   0.65375271  0.48707944  0.49836795
   0.41513635  0.55843774  0.49444182
   0.44713584  0.42046259  0.58721972
   0.55319973  0.57740210  0.61835522
   0.68288198  0.43932772  0.39690286
   0.70068263  0.58058710  0.48165173
   0.69086390  0.45208324  0.58809049
Direct configuration=    71
   0.49603046  0.50300445  0.52275735
   0.65308462  0.48763215  0.49908127
   0.40930882  0.55758446  0.49798279
   0.44915039  0.41958662  0.59242295
   0.55694031  0.57099345  0.61336997
   0.68795208  0.43380766  0.39891824
   0.69905253  0.58274131  0.48112477
   0.69650214  0.44484797  0.59124739
Direct configuration=    72
   0.49617387  0.50373269  0.52281918
   0.65243676  0.48805719  0.49954090
   0.40299297  0.55761289  0.49965624
   0.45227027  0.41994210  0.59627022
   0.55740431  0.56409017  0.60748653
   0.69249081  0.42825892  0.40256637
   0.69762583  0.58601874  0.48027902
   0.70215397  0.43750741  0.59397560
Direct configuration=    73
   0.49646198  0.50443170  0.52329165
   0.65194917  0.48827698  0.49985225
   0.39796919  0.55794147  0.50003267
   0.45637952  0.42138520  0.59866252
   0.55457481  0.55792699  0.60201381
   0.69675589  0.42303598  0.40785668
   0.69621109  0.58942905  0.47983008
   0.70673183  0.43137705  0.59538585
Direct configuration=    74
   0.49673537  0.50494562  0.52407314
   0.65156820  0.48828699  0.50004240
   0.39488624  0.55843031  0.49914125
   0.46116214  0.42332730  0.59953732
   0.54938456  0.55317417  0.59765712
   0.69961437  0.41833761  0.41439637
   0.69492846  0.59214019  0.47959472
   0.70940328  0.42711719  0.59478977
Direct configuration=    75
   0.49689015  0.50528235  0.52503803
   0.65137178  0.48808003  0.49998713
   0.39450057  0.55875427  0.49778812
   0.46643222  0.42583343  0.59876925
   0.54356525  0.55176508  0.59713967
   0.70116044  0.41518158  0.42168757
   0.69303960  0.59343445  0.47993436
   0.71008105  0.42506475  0.59215865
Direct configuration=    76
   0.49698090  0.50522995  0.52599219
   0.65142457  0.48769604  0.49979336
   0.39691582  0.55850531  0.49572802
   0.47200311  0.42800681  0.59683593
   0.53813978  0.55500997  0.60162300
   0.70148511  0.41352669  0.42906928
   0.69133674  0.59357631  0.48108388
   0.70871434  0.42544242  0.58835950
Direct configuration=    77
   0.49701802  0.50509436  0.52686480
   0.65158871  0.48718477  0.49943909
   0.40126956  0.55729748  0.49274668
   0.47614043  0.42826399  0.59467134
   0.53258073  0.56213502  0.61008807
   0.70093159  0.41301280  0.43596830
   0.68976839  0.59226034  0.48247524
   0.70583157  0.42829187  0.58347173
Direct configuration=    78
   0.49718563  0.50501145  0.52779196
   0.65178895  0.48661178  0.49905705
   0.40711787  0.55526791  0.48908703
   0.47897942  0.42610657  0.59291967
   0.52630337  0.57104134  0.61949475
   0.69944250  0.41278710  0.44092802
   0.68903165  0.59012982  0.48374289
   0.70168617  0.43288592  0.57880443
Direct configuration=    79
   0.49745707  0.50519972  0.52890289
   0.65189243  0.48614952  0.49865121
   0.41371820  0.55261619  0.48437370
   0.48016940  0.42185521  0.59171058
   0.51885750  0.57978841  0.62797567
   0.69745892  0.41222088  0.44271907
   0.68891495  0.58729262  0.48538216
   0.69766544  0.43850063  0.57616970
Direct configuration=    80
   0.49799127  0.50543383  0.53031422
   0.65185009  0.48589631  0.49829440
   0.41948251  0.55032771  0.47843170
   0.48014491  0.41588658  0.59064887
   0.51051291  0.58744789  0.63456132
   0.69504568  0.41002929  0.44063932
   0.68956487  0.58416543  0.48637691
   0.69474036  0.44352313  0.57732290
Direct configuration=    81
   0.49873579  0.50572757  0.53218994
   0.65143754  0.48586343  0.49780693
   0.42439521  0.54862866  0.47124081
   0.47894859  0.40951378  0.58951220
   0.50151998  0.59310826  0.63869487
   0.69239488  0.40695116  0.43599831
   0.69114867  0.58143088  0.48663560
   0.69357250  0.44777474  0.58302879
Direct configuration=    82
   0.49974163  0.50614779  0.53442784
   0.65088050  0.48586490  0.49731635
   0.42793968  0.54696491  0.46237340
   0.47709246  0.40403972  0.58752496
   0.49214433  0.59655737  0.63981741
   0.68908590  0.40409032  0.42995203
   0.69448185  0.58061217  0.48574073
   0.69339823  0.45139260  0.59184677
Direct configuration=    83
   0.50081719  0.50650030  0.53698815
   0.65030603  0.48581787  0.49686038
   0.43133464  0.54482306  0.45312306
   0.47495173  0.40049447  0.58460614
   0.48337877  0.59727155  0.63764054
   0.68483734  0.40217812  0.42388680
   0.69871158  0.58108577  0.48433657
   0.69368558  0.45469136  0.60058291
Direct configuration=    84
   0.50180286  0.50695128  0.53979381
   0.64975055  0.48564181  0.49659513
   0.43534610  0.54145988  0.44487233
   0.47239945  0.39886012  0.58066610
   0.47513832  0.59562569  0.63277405
   0.67980555  0.40172687  0.41890752
   0.70396272  0.58195182  0.48206396
   0.69375750  0.45814594  0.60787888
Direct configuration=    85
   0.50260157  0.50756814  0.54250486
   0.64929113  0.48545134  0.49653371
   0.44041745  0.53740403  0.43864599
   0.46938815  0.39961350  0.57552112
   0.46808681  0.59152126  0.62533942
   0.67380293  0.40258932  0.41493201
   0.70902486  0.58218940  0.47922453
   0.69342565  0.46154257  0.61256939
Direct configuration=    86
   0.50311946  0.50813734  0.54503245
   0.64898966  0.48540452  0.49678869
   0.44639981  0.53257114  0.43505495
   0.46624321  0.40256798  0.57010859
   0.46293891  0.58569032  0.61668757
   0.66715022  0.40477734  0.41299367
   0.71322969  0.58140106  0.47609949
   0.69339619  0.46476873  0.61383010
Direct configuration=    87
   0.50349477  0.50856733  0.54720320
   0.64892977  0.48546952  0.49743181
   0.45298435  0.52692405  0.43451766
   0.46329341  0.40693813  0.56458495
   0.45916340  0.57988309  0.60795232
   0.66002063  0.40787854  0.41289794
   0.71609856  0.57911209  0.47282844
   0.69339132  0.46753998  0.61224462
Direct configuration=    88
   0.50376112  0.50884561  0.54874651
   0.64905341  0.48572091  0.49841059
   0.45991926  0.52102724  0.43644663
   0.46016578  0.41169812  0.56006191
   0.45559433  0.57565217  0.60124935
   0.65298200  0.41168484  0.41451156
   0.71742147  0.57564601  0.46957439
   0.69353887  0.46952973  0.60765183
Direct configuration=    89
   0.50410264  0.50879911  0.54957084
   0.64930917  0.48598258  0.49977518
   0.46653774  0.51560446  0.44025517
   0.45687180  0.41545945  0.55621570
   0.45072555  0.57508805  0.59804129
   0.64619637  0.41549294  0.41713941
   0.71740823  0.57192748  0.46695844
   0.69442359  0.47055095  0.60046202
Direct configuration=    90
   0.50457920  0.50846480  0.54975023
   0.64971737  0.48633978  0.50133490
   0.47208083  0.51151171  0.44480772
   0.45326105  0.41730422  0.55320937
   0.44431722  0.57840232  0.59783403
   0.64002103  0.41859516  0.41972255